# Forces      
# CofR        : (0.000000e+00 0.000000e+00 0.000000e+00)
# Time        forces(pressure viscous)	moments(pressure viscous)
0             	((2.679339e+01 -3.157156e-01 8.510413e-06) (6.520567e-01 1.062657e-02 1.255882e-05)) ((9.542175e-05 -6.276427e-05 -2.713911e-05) (-2.663163e-07 3.895181e-07 4.957903e-04))
0.0001        	((2.635667e+01 -1.618269e-01 1.253195e-05) (6.061698e-01 9.652755e-03 9.283408e-06)) ((-2.733051e-03 2.320421e-03 -2.938781e-05) (-3.895697e-07 3.839320e-07 4.503343e-04))
0.0002        	((2.641211e+01 -2.409019e-01 3.521145e-06) (5.717222e-01 8.858471e-03 1.233287e-05)) ((1.621082e-04 -8.325267e-05 -2.889492e-05) (-2.875441e-07 1.685344e-07 4.213879e-04))
0.0003        	((2.598449e+01 -2.212316e-01 6.545893e-06) (5.493217e-01 8.345893e-03 1.177992e-05)) ((-3.537259e-04 4.954459e-04 -2.895898e-05) (-2.634517e-07 2.767055e-08 4.060503e-04))
0.0004        	((2.562549e+01 -2.349256e-01 5.644083e-06) (5.352782e-01 8.064243e-03 1.167034e-05)) ((-9.197273e-06 9.505484e-05 -2.900526e-05) (-2.328923e-07 -8.599558e-08 3.987768e-04))
0.0005        	((2.531692e+01 -2.340210e-01 6.888075e-06) (5.250306e-01 7.906041e-03 1.104453e-05)) ((-9.197561e-05 1.403870e-04 -2.904342e-05) (-2.076507e-07 -1.427690e-07 3.946540e-04))
0.0006        	((2.502695e+01 -2.365361e-01 6.872244e-06) (5.169930e-01 7.793171e-03 1.051600e-05)) ((-1.012174e-04 1.619094e-04 -2.905258e-05) (-1.794563e-07 -1.790103e-07 3.920087e-04))
0.0007        	((2.473316e+01 -2.401091e-01 6.329676e-06) (5.098920e-01 7.681358e-03 1.024089e-05)) ((-2.424454e-05 9.440047e-05 -2.890933e-05) (-1.498215e-07 -1.960092e-07 3.898610e-04))
0.0008        	((2.447522e+01 -2.417877e-01 6.924515e-06) (5.040819e-01 7.574043e-03 9.834318e-06)) ((-4.753141e-05 1.047607e-04 -2.902707e-05) (-1.200340e-07 -2.046822e-07 3.883090e-04))
0.0009        	((2.420822e+01 -2.443986e-01 6.682701e-06) (4.988376e-01 7.470960e-03 9.611220e-06)) ((-1.205601e-05 8.047973e-05 -2.892007e-05) (-9.177288e-08 -1.993896e-07 3.871024e-04))
0.001         	((2.396628e+01 -2.451781e-01 6.705554e-06) (4.945516e-01 7.380358e-03 9.416816e-06)) ((-3.084763e-05 8.870585e-05 -2.886955e-05) (-6.111523e-08 -2.083168e-07 3.864147e-04))
0.0011        	((2.371909e+01 -2.476066e-01 6.395109e-06) (4.904943e-01 7.295835e-03 9.356095e-06)) ((-5.523918e-06 6.296085e-05 -2.886976e-05) (-3.903703e-08 -1.927952e-07 3.859059e-04))
0.0012        	((2.349392e+01 -2.485286e-01 6.583295e-06) (4.871045e-01 7.225167e-03 9.179550e-06)) ((-2.002575e-05 7.335864e-05 -2.889696e-05) (-1.937526e-09 -1.846138e-07 3.857601e-04))
0.0013        	((2.326824e+01 -2.500200e-01 6.049926e-06) (4.837572e-01 7.163180e-03 9.140526e-06)) ((-1.934283e-05 7.160930e-05 -2.885006e-05) (1.144086e-08 -1.821962e-07 3.856843e-04))
0.0014        	((2.304256e+01 -2.520580e-01 6.028043e-06) (4.809522e-01 7.109941e-03 9.101877e-06)) ((1.968223e-05 3.876466e-05 -2.896068e-05) (1.028447e-08 -1.739655e-07 3.858689e-04))
0.0015        	((2.283069e+01 -2.532124e-01 6.190594e-06) (4.780995e-01 7.060136e-03 9.017678e-06)) ((1.052919e-05 4.615938e-05 -2.895634e-05) (1.013978e-08 -1.615488e-07 3.860776e-04))
0.0016        	((2.262858e+01 -2.543271e-01 5.907907e-06) (4.757048e-01 7.021320e-03 8.981969e-06)) ((-6.781041e-06 5.943208e-05 -2.900289e-05) (3.290116e-08 -1.626625e-07 3.865174e-04))
0.0017        	((2.242489e+01 -2.557305e-01 5.650084e-06) (4.732065e-01 6.983411e-03 8.977825e-06)) ((-7.552196e-06 5.942538e-05 -2.907375e-05) (3.621749e-08 -1.541386e-07 3.869394e-04))
0.0018        	((2.222206e+01 -2.571959e-01 5.747807e-06) (4.711070e-01 6.953979e-03 8.950993e-06)) ((2.132036e-05 3.460408e-05 -2.914395e-05) (2.649495e-08 -1.452105e-07 3.874554e-04))
0.0019        	((2.203165e+01 -2.584142e-01 5.569600e-06) (4.688722e-01 6.923206e-03 8.925761e-06)) ((8.879833e-06 4.425825e-05 -2.915598e-05) (2.221814e-08 -1.255953e-07 3.879468e-04))
0.002         	((2.183837e+01 -2.597872e-01 5.698952e-06) (4.669903e-01 6.900616e-03 8.843638e-06)) ((2.508042e-05 3.161424e-05 -2.926157e-05) (3.095399e-08 -1.246553e-07 3.885221e-04))
0.0021        	((2.165601e+01 -2.611477e-01 5.623475e-06) (4.649623e-01 6.879177e-03 8.804015e-06)) ((3.115449e-05 2.118928e-05 -2.930890e-05) (4.032753e-08 -1.207105e-07 3.890900e-04))
0.0022        	((2.147118e+01 -2.621611e-01 5.749242e-06) (4.632517e-01 6.865463e-03 8.714899e-06)) ((2.710199e-05 2.490104e-05 -2.938891e-05) (3.526591e-08 -1.139588e-07 3.897682e-04))
0.0023        	((2.129515e+01 -2.633127e-01 6.079574e-06) (4.613859e-01 6.847984e-03 8.563466e-06)) ((2.459785e-05 3.274728e-05 -2.943343e-05) (2.017576e-08 -1.012119e-07 3.904055e-04))
0.0024        	((2.112116e+01 -2.644873e-01 5.819987e-06) (4.598170e-01 6.837313e-03 8.477803e-06)) ((2.511801e-05 2.835050e-05 -2.954006e-05) (3.132517e-08 -8.971501e-08 3.910837e-04))
0.0025        	((2.094999e+01 -2.656161e-01 5.753733e-06) (4.580891e-01 6.827358e-03 8.412800e-06)) ((2.620894e-05 2.793807e-05 -2.954448e-05) (3.209304e-08 -7.858098e-08 3.917525e-04))
0.0026        	((2.078288e+01 -2.666836e-01 5.662728e-06) (4.566343e-01 6.821543e-03 8.348285e-06)) ((2.650277e-05 2.527906e-05 -2.967425e-05) (3.766086e-08 -6.994592e-08 3.924888e-04))
0.0027        	((2.061741e+01 -2.679045e-01 5.722785e-06) (4.550220e-01 6.812487e-03 8.282339e-06)) ((3.016887e-05 2.471936e-05 -2.968691e-05) (1.584023e-08 -5.490055e-08 3.932476e-04))
0.0028        	((2.045259e+01 -2.689749e-01 5.684978e-06) (4.536589e-01 6.810766e-03 8.216031e-06)) ((3.904002e-05 1.579626e-05 -2.977023e-05) (2.661526e-08 -5.653561e-08 3.939224e-04))
0.0029        	((2.029757e+01 -2.709835e-01 5.556606e-06) (4.521443e-01 6.806076e-03 8.170464e-06)) ((7.349119e-05 -2.301289e-05 -2.979024e-05) (3.233453e-08 -4.097830e-08 3.946857e-04))
0.003         	((2.013258e+01 -2.724105e-01 5.685846e-06) (4.508582e-01 6.806387e-03 8.087452e-06)) ((1.376561e-04 -8.786022e-05 -2.988860e-05) (4.467153e-08 -3.283376e-08 3.953839e-04))
0.0031        	((1.998245e+01 -2.737148e-01 6.088423e-06) (4.494231e-01 6.803305e-03 7.916243e-06)) ((1.166221e-04 -7.917044e-05 -2.988272e-05) (3.280355e-08 -2.869220e-08 3.961671e-04))
0.0032        	((1.984416e+01 -2.736177e-01 5.165135e-06) (4.481998e-01 6.805454e-03 7.939337e-06)) ((4.382030e-05 1.360511e-05 -2.995962e-05) (4.531624e-08 -2.072102e-08 3.968575e-04))
0.0033        	((1.968888e+01 -2.752210e-01 5.135937e-06) (4.468300e-01 6.805432e-03 7.921904e-06)) ((6.022437e-05 -9.682117e-06 -2.999466e-05) (4.244383e-08 1.022097e-08 3.976304e-04))
0.0034        	((1.954335e+01 -2.763643e-01 5.966188e-06) (4.456602e-01 6.809619e-03 7.724198e-06)) ((8.035821e-05 -3.854380e-05 -3.003775e-05) (4.951502e-08 2.577847e-09 3.983085e-04))
0.0035        	((1.939909e+01 -2.773027e-01 5.030508e-06) (4.443474e-01 6.810329e-03 7.755691e-06)) ((4.829950e-05 8.318705e-06 -3.006240e-05) (3.699607e-08 2.395109e-08 3.990681e-04))
0.0036        	((1.926028e+01 -2.785799e-01 5.574660e-06) (4.432181e-01 6.814391e-03 7.621896e-06)) ((7.210709e-05 -2.661579e-05 -3.009277e-05) (5.360940e-08 3.146509e-08 3.997929e-04))
0.0037        	((1.912073e+01 -2.793493e-01 4.978755e-06) (4.419494e-01 6.817339e-03 7.634847e-06)) ((4.375633e-05 1.098195e-05 -3.009641e-05) (3.978188e-08 5.421193e-08 4.005490e-04))
0.0038        	((1.898628e+01 -2.805883e-01 5.457626e-06) (4.408594e-01 6.822653e-03 7.508899e-06)) ((6.137448e-05 -1.415856e-05 -3.014977e-05) (4.148512e-08 5.088238e-08 4.012186e-04))
0.0039        	((1.885101e+01 -2.819325e-01 5.366720e-06) (4.396346e-01 6.824595e-03 7.416014e-06)) ((6.706052e-05 -1.991125e-05 -3.016054e-05) (3.836326e-08 6.546623e-08 4.019342e-04))
0.004         	((1.872220e+01 -2.831484e-01 5.334959e-06) (4.385712e-01 6.829127e-03 7.310648e-06)) ((7.259175e-05 -3.134525e-05 -3.016229e-05) (5.372537e-08 7.041905e-08 4.026104e-04))
0.0041        	((1.860007e+01 -2.841359e-01 5.716831e-06) (4.373795e-01 6.831327e-03 7.135260e-06)) ((5.500999e-05 -4.078132e-06 -3.019492e-05) (4.764431e-08 7.898265e-08 4.033121e-04))
0.0042        	((1.846929e+01 -2.852550e-01 5.017830e-06) (4.363469e-01 6.835147e-03 7.155889e-06)) ((5.011201e-05 -4.602586e-07 -3.021644e-05) (4.382481e-08 8.288437e-08 4.039308e-04))
0.0043        	((1.834494e+01 -2.863605e-01 5.406866e-06) (4.351897e-01 6.838097e-03 7.039333e-06)) ((5.675361e-05 -7.248379e-06 -3.018411e-05) (3.588585e-08 9.576205e-08 4.046384e-04))
0.0044        	((1.822121e+01 -2.874864e-01 5.030045e-06) (4.341770e-01 6.843313e-03 7.004349e-06)) ((4.962855e-05 1.797763e-06 -3.023112e-05) (5.575564e-08 1.068515e-07 4.052803e-04))
0.0045        	((1.810896e+01 -2.887415e-01 5.683288e-06) (4.330485e-01 6.846721e-03 6.811004e-06)) ((5.450544e-05 -5.512840e-06 -3.022172e-05) (5.439623e-08 1.062654e-07 4.060330e-04))
0.0046        	((1.798358e+01 -2.897953e-01 5.055449e-06) (4.320573e-01 6.852467e-03 6.775042e-06)) ((4.696213e-05 7.471782e-06 -3.023789e-05) (4.885588e-08 1.189837e-07 4.066183e-04))
0.0047        	((1.787579e+01 -2.910813e-01 5.577853e-06) (4.309575e-01 6.855096e-03 6.622097e-06)) ((5.082331e-05 -8.744763e-07 -3.023692e-05) (3.797466e-08 1.184565e-07 4.073250e-04))
0.0048        	((1.775542e+01 -2.923273e-01 5.244796e-06) (4.299833e-01 6.860971e-03 6.550971e-06)) ((4.999406e-05 2.004845e-06 -3.025698e-05) (6.135624e-08 1.238426e-07 4.079213e-04))
0.0049        	((1.764849e+01 -2.935129e-01 5.479976e-06) (4.289086e-01 6.864868e-03 6.439732e-06)) ((5.614242e-05 -9.610340e-06 -3.024056e-05) (5.323299e-08 1.195396e-07 4.086035e-04))
0.005         	((1.753433e+01 -2.947940e-01 4.980269e-06) (4.279518e-01 6.869842e-03 6.421319e-06)) ((4.382352e-05 5.041436e-06 -3.026453e-05) (5.687806e-08 1.438007e-07 4.091791e-04))
0.0051        	((1.742821e+01 -2.958890e-01 5.227275e-06) (4.269020e-01 6.872022e-03 6.350797e-06)) ((5.121138e-05 -5.752497e-08 -3.027498e-05) (4.628106e-08 1.421413e-07 4.098411e-04))
0.0052        	((1.732088e+01 -2.972933e-01 4.870847e-06) (4.259607e-01 6.877644e-03 6.329887e-06)) ((4.477102e-05 3.092418e-06 -3.027187e-05) (6.873433e-08 1.561853e-07 4.104147e-04))
0.0053        	((1.721822e+01 -2.984200e-01 5.112286e-06) (4.249329e-01 6.881810e-03 6.295406e-06)) ((5.154880e-05 -1.301173e-06 -3.031172e-05) (6.105769e-08 1.319572e-07 4.110282e-04))
0.0054        	((1.711308e+01 -2.999023e-01 5.057977e-06) (4.240055e-01 6.886638e-03 6.210713e-06)) ((4.536501e-05 -2.392164e-06 -3.030360e-05) (6.235108e-08 1.638621e-07 4.115586e-04))
0.0055        	((1.701437e+01 -3.009837e-01 5.419343e-06) (4.229992e-01 6.889061e-03 6.077433e-06)) ((5.071870e-05 -3.564808e-06 -3.030721e-05) (5.711134e-08 1.502960e-07 4.121882e-04))
0.0056        	((1.691173e+01 -3.024686e-01 4.915105e-06) (4.220870e-01 6.893826e-03 6.022725e-06)) ((4.426286e-05 5.413269e-07 -3.030913e-05) (7.474722e-08 1.755499e-07 4.127172e-04))
0.0057        	((1.681408e+01 -3.035098e-01 5.058880e-06) (4.210994e-01 6.897021e-03 5.976261e-06)) ((4.854040e-05 1.191820e-06 -3.034347e-05) (7.071480e-08 1.563538e-07 4.133095e-04))
0.0058        	((1.671792e+01 -3.049480e-01 5.110647e-06) (4.202034e-01 6.902229e-03 5.898274e-06)) ((5.011572e-05 -2.485547e-06 -3.031160e-05) (7.584481e-08 1.660933e-07 4.137961e-04))
0.0059        	((1.661811e+01 -3.064741e-01 4.763061e-06) (4.192360e-01 6.903048e-03 5.896048e-06)) ((6.057843e-05 -1.728296e-05 -3.034267e-05) (6.461091e-08 1.722496e-07 4.143996e-04))
0.006         	((1.653216e+01 -3.071442e-01 4.907761e-06) (4.183523e-01 6.906599e-03 5.801601e-06)) ((4.096172e-05 1.102776e-05 -3.034244e-05) (7.843803e-08 1.927038e-07 4.148986e-04))
0.0061        	((1.643984e+01 -3.084499e-01 5.147963e-06) (4.174027e-01 6.909080e-03 5.689473e-06)) ((3.913151e-05 1.426384e-05 -3.035619e-05) (7.158373e-08 1.854776e-07 4.154566e-04))
0.0062        	((1.634709e+01 -3.099815e-01 5.355766e-06) (4.165353e-01 6.913265e-03 5.532303e-06)) ((4.421503e-05 9.589335e-06 -3.035008e-05) (7.478702e-08 1.767564e-07 4.159020e-04))
0.0063        	((1.625800e+01 -3.114217e-01 5.133066e-06) (4.156040e-01 6.912857e-03 5.457956e-06)) ((4.652124e-05 4.094455e-06 -3.037440e-05) (7.332665e-08 1.708653e-07 4.164713e-04))
0.0064        	((1.616933e+01 -3.130009e-01 4.940745e-06) (4.147471e-01 6.915675e-03 5.404740e-06)) ((4.751023e-05 -4.397716e-06 -3.034974e-05) (8.672622e-08 1.866334e-07 4.169350e-04))
0.0065        	((1.608360e+01 -3.143375e-01 4.944947e-06) (4.138320e-01 6.916048e-03 5.383600e-06)) ((4.666416e-05 -1.772322e-06 -3.039284e-05) (7.665795e-08 1.736198e-07 4.174793e-04))
0.0066        	((1.599590e+01 -3.155568e-01 4.891258e-06) (4.129891e-01 6.918933e-03 5.361492e-06)) ((4.117211e-05 1.188424e-06 -3.037132e-05) (8.828215e-08 1.686879e-07 4.178849e-04))
0.0067        	((1.591420e+01 -3.169451e-01 5.201555e-06) (4.120920e-01 6.917510e-03 5.245796e-06)) ((4.666853e-05 -3.212102e-06 -3.038496e-05) (8.053033e-08 1.773606e-07 4.184312e-04))
0.0068        	((1.582948e+01 -3.183959e-01 4.877865e-06) (4.112619e-01 6.918865e-03 5.193433e-06)) ((4.396456e-05 2.262720e-06 -3.037436e-05) (9.473411e-08 1.865728e-07 4.188624e-04))
0.0069        	((1.574626e+01 -3.197352e-01 4.854577e-06) (4.103792e-01 6.918211e-03 5.161681e-06)) ((4.740603e-05 -2.636431e-06 -3.041462e-05) (8.740897e-08 1.868901e-07 4.193687e-04))
0.007         	((1.566898e+01 -3.210861e-01 5.032699e-06) (4.095633e-01 6.920645e-03 5.063953e-06)) ((4.201323e-05 -7.195774e-08 -3.038724e-05) (9.494712e-08 1.782326e-07 4.197551e-04))
0.0071        	((1.558873e+01 -3.224800e-01 4.969909e-06) (4.086983e-01 6.918055e-03 4.986747e-06)) ((4.565174e-05 -1.600611e-06 -3.042938e-05) (8.594117e-08 1.872041e-07 4.202680e-04))
0.0072        	((1.551007e+01 -3.242493e-01 4.812337e-06) (4.078953e-01 6.918605e-03 4.957557e-06)) ((4.880982e-05 -1.025269e-05 -3.040483e-05) (1.062724e-07 1.943613e-07 4.206781e-04))
0.0073        	((1.543138e+01 -3.253168e-01 4.820202e-06) (4.070444e-01 6.917728e-03 4.927336e-06)) ((4.476214e-05 -2.890474e-06 -3.043779e-05) (9.898936e-08 1.866566e-07 4.211506e-04))
0.0074        	((1.535796e+01 -3.267202e-01 4.809157e-06) (4.062564e-01 6.919221e-03 4.892045e-06)) ((4.052162e-05 1.463437e-06 -3.041825e-05) (1.009503e-07 1.855788e-07 4.215104e-04))
0.0075        	((1.528270e+01 -3.281355e-01 4.825288e-06) (4.054214e-01 6.915823e-03 4.839334e-06)) ((4.414230e-05 -1.016016e-06 -3.046279e-05) (9.168859e-08 1.965125e-07 4.219891e-04))
0.0076        	((1.520810e+01 -3.299409e-01 4.764259e-06) (4.046466e-01 6.916202e-03 4.803957e-06)) ((4.773479e-05 -1.129039e-05 -3.041984e-05) (1.159293e-07 1.928678e-07 4.223724e-04))
0.0077        	((1.513417e+01 -3.311121e-01 4.785044e-06) (4.038260e-01 6.914023e-03 4.767826e-06)) ((4.378374e-05 -4.059170e-06 -3.047572e-05) (1.090573e-07 1.902754e-07 4.228012e-04))
0.0078        	((1.506430e+01 -3.327854e-01 4.863587e-06) (4.030654e-01 6.914569e-03 4.723740e-06)) ((4.769698e-05 -1.095856e-05 -3.044698e-05) (1.140844e-07 1.847420e-07 4.231376e-04))
0.0079        	((1.499239e+01 -3.341153e-01 4.725709e-06) (4.022606e-01 6.910617e-03 4.684972e-06)) ((4.558195e-05 -7.397703e-06 -3.047636e-05) (1.006825e-07 1.904942e-07 4.235885e-04))
0.008         	((1.492348e+01 -3.356892e-01 4.802516e-06) (4.015133e-01 6.910119e-03 4.623411e-06)) ((4.830615e-05 -1.322425e-05 -3.045708e-05) (1.206451e-07 1.946727e-07 4.239488e-04))
0.0081        	((1.485410e+01 -3.370896e-01 4.592006e-06) (4.007209e-01 6.906658e-03 4.625501e-06)) ((4.209955e-05 -7.579002e-06 -3.050842e-05) (1.199743e-07 1.883698e-07 4.243552e-04))
0.0082        	((1.478685e+01 -3.384817e-01 4.930825e-06) (3.999869e-01 6.906529e-03 4.533498e-06)) ((4.283569e-05 -2.357519e-06 -3.046566e-05) (1.278418e-07 1.770879e-07 4.246691e-04))
0.0083        	((1.471975e+01 -3.401096e-01 4.741054e-06) (3.992094e-01 6.901144e-03 4.496762e-06)) ((4.316462e-05 -7.717025e-06 -3.052120e-05) (1.158473e-07 1.825229e-07 4.250822e-04))
0.0084        	((1.465137e+01 -3.414416e-01 4.616039e-06) (3.984876e-01 6.899850e-03 4.454936e-06)) ((3.937594e-05 8.988893e-07 -3.049554e-05) (1.342158e-07 1.893652e-07 4.254090e-04))
0.0085        	((1.458802e+01 -3.430118e-01 4.911649e-06) (3.977229e-01 6.895514e-03 4.366667e-06)) ((4.314282e-05 -6.037986e-06 -3.053362e-05) (1.319243e-07 1.883115e-07 4.257980e-04))
0.0086        	((1.452321e+01 -3.447809e-01 4.703653e-06) (3.970147e-01 6.894300e-03 4.344286e-06)) ((4.422618e-05 -9.999148e-06 -3.050243e-05) (1.381484e-07 1.776553e-07 4.260920e-04))
0.0087        	((1.445807e+01 -3.459770e-01 4.576060e-06) (3.962635e-01 6.888116e-03 4.330603e-06)) ((4.269412e-05 -4.580566e-06 -3.056364e-05) (1.317192e-07 1.809237e-07 4.264793e-04))
0.0088        	((1.439810e+01 -3.474272e-01 4.802482e-06) (3.955676e-01 6.886530e-03 4.239687e-06)) ((3.943323e-05 1.125743e-06 -3.052404e-05) (1.467265e-07 1.900171e-07 4.267943e-04))
0.0089        	((1.433548e+01 -3.491177e-01 4.765041e-06) (3.948292e-01 6.880795e-03 4.183676e-06)) ((4.052864e-05 -5.005364e-06 -3.058781e-05) (1.439482e-07 1.907525e-07 4.271675e-04))
0.009         	((1.427252e+01 -3.508040e-01 4.596482e-06) (3.941456e-01 6.878658e-03 4.172419e-06)) ((4.284390e-05 -6.051611e-06 -3.055351e-05) (1.532259e-07 1.775434e-07 4.274396e-04))
0.0091        	((1.421414e+01 -3.521803e-01 4.806709e-06) (3.934213e-01 6.872143e-03 4.110673e-06)) ((4.397721e-05 -1.191109e-05 -3.060327e-05) (1.426122e-07 1.785305e-07 4.278144e-04))
0.0092        	((1.415226e+01 -3.538576e-01 4.391089e-06) (3.927502e-01 6.870164e-03 4.119056e-06)) ((3.884147e-05 -4.347085e-06 -3.058269e-05) (1.550367e-07 1.861447e-07 4.281065e-04))
0.0093        	((1.409656e+01 -3.550581e-01 4.738238e-06) (3.920373e-01 6.863681e-03 4.050537e-06)) ((3.920704e-05 6.972288e-07 -3.064568e-05) (1.550560e-07 1.867172e-07 4.284748e-04))
0.0094        	((1.403715e+01 -3.569945e-01 4.700388e-06) (3.913786e-01 6.861678e-03 4.006013e-06)) ((3.861636e-05 -5.173558e-06 -3.060085e-05) (1.615595e-07 1.764836e-07 4.287576e-04))
0.0095        	((1.397883e+01 -3.585731e-01 4.555085e-06) (3.906794e-01 6.854447e-03 3.996832e-06)) ((4.129826e-05 -7.063728e-06 -3.066558e-05) (1.535846e-07 1.683640e-07 4.291236e-04))
0.0096        	((1.392307e+01 -3.602200e-01 4.714013e-06) (3.900317e-01 6.851933e-03 3.931515e-06)) ((4.299791e-05 -1.415800e-05 -3.064402e-05) (1.693613e-07 1.747896e-07 4.294043e-04))
0.0097        	((1.386561e+01 -3.616321e-01 4.404920e-06) (3.893432e-01 6.845186e-03 3.933802e-06)) ((4.011553e-05 -4.298816e-06 -3.069368e-05) (1.658828e-07 1.718934e-07 4.297533e-04))
0.0098        	((1.381318e+01 -3.632418e-01 4.784838e-06) (3.887080e-01 6.842534e-03 3.860862e-06)) ((3.881421e-05 -3.072618e-06 -3.066928e-05) (1.669731e-07 1.665343e-07 4.300175e-04))
0.0099        	((1.375658e+01 -3.650210e-01 4.555449e-06) (3.880331e-01 6.835315e-03 3.848779e-06)) ((4.061828e-05 -1.104113e-05 -3.073393e-05) (1.592893e-07 1.583585e-07 4.303542e-04))
0.01          	((1.370253e+01 -3.665589e-01 4.507906e-06) (3.874097e-01 6.833014e-03 3.833426e-06)) ((3.722037e-05 -8.973313e-06 -3.070042e-05) (1.758908e-07 1.648545e-07 4.306268e-04))
0.0101        	((1.365124e+01 -3.679769e-01 4.651368e-06) (3.867463e-01 6.826060e-03 3.769580e-06)) ((3.743359e-05 -2.304404e-06 -3.076986e-05) (1.745356e-07 1.613092e-07 4.309703e-04))
0.0102        	((1.359654e+01 -3.699890e-01 4.558937e-06) (3.861343e-01 6.823178e-03 3.749740e-06)) ((3.930539e-05 -1.083044e-05 -3.074273e-05) (1.783463e-07 1.580272e-07 4.312085e-04))
0.0103        	((1.354273e+01 -3.715204e-01 4.450919e-06) (3.854841e-01 6.815835e-03 3.739967e-06)) ((4.412552e-05 -1.835562e-05 -3.079476e-05) (1.687292e-07 1.531379e-07 4.315504e-04))
0.0104        	((1.349640e+01 -3.730223e-01 4.595046e-06) (3.848843e-01 6.813309e-03 3.683983e-06)) ((3.692417e-05 -6.357817e-06 -3.078148e-05) (1.793384e-07 1.637794e-07 4.317875e-04))
0.0105        	((1.344450e+01 -3.745090e-01 4.660084e-06) (3.842445e-01 6.805600e-03 3.613425e-06)) ((3.609387e-05 -8.714914e-07 -3.084370e-05) (1.795420e-07 1.602869e-07 4.321150e-04))
0.0106        	((1.339224e+01 -3.766671e-01 4.484533e-06) (3.836551e-01 6.802962e-03 3.609212e-06)) ((4.033744e-05 -1.763511e-05 -3.080081e-05) (1.837919e-07 1.548773e-07 4.323306e-04))
0.0107        	((1.334325e+01 -3.779832e-01 4.372086e-06) (3.830280e-01 6.795210e-03 3.612339e-06)) ((4.014770e-05 -1.155238e-05 -3.087159e-05) (1.745619e-07 1.467417e-07 4.326616e-04))
0.0108        	((1.329615e+01 -3.796592e-01 4.639890e-06) (3.824496e-01 6.792567e-03 3.543765e-06)) ((3.719305e-05 -5.845766e-06 -3.085212e-05) (1.867126e-07 1.489544e-07 4.328691e-04))
0.0109        	((1.324573e+01 -3.814203e-01 4.372967e-06) (3.818322e-01 6.784882e-03 3.550558e-06)) ((3.866153e-05 -1.356685e-05 -3.090161e-05) (1.867415e-07 1.459105e-07 4.331917e-04))
0.011         	((1.319790e+01 -3.831826e-01 4.393237e-06) (3.812643e-01 6.782152e-03 3.547672e-06)) ((3.900276e-05 -1.314064e-05 -3.088220e-05) (1.925489e-07 1.401921e-07 4.333963e-04))
0.0111        	((1.315292e+01 -3.846033e-01 4.619429e-06) (3.806593e-01 6.773898e-03 3.484885e-06)) ((3.646421e-05 -6.558584e-06 -3.095243e-05) (1.841885e-07 1.360316e-07 4.337165e-04))
0.0112        	((1.310384e+01 -3.864247e-01 4.395506e-06) (3.801030e-01 6.771150e-03 3.460811e-06)) ((3.439252e-05 -5.296921e-06 -3.092249e-05) (1.932630e-07 1.487302e-07 4.339159e-04))
0.0113        	((1.305900e+01 -3.881035e-01 4.518835e-06) (3.795086e-01 6.762480e-03 3.411431e-06)) ((3.776065e-05 -1.135748e-05 -3.099113e-05) (1.913725e-07 1.556653e-07 4.342147e-04))
0.0114        	((1.301189e+01 -3.899136e-01 4.299461e-06) (3.789630e-01 6.759158e-03 3.426087e-06)) ((3.417059e-05 -6.906170e-06 -3.097413e-05) (2.000900e-07 1.504362e-07 4.343807e-04))
0.0115        	((1.296953e+01 -3.913196e-01 4.578522e-06) (3.783799e-01 6.750567e-03 3.368598e-06)) ((3.490807e-05 -2.923803e-06 -3.102609e-05) (1.935429e-07 1.431935e-07 4.346768e-04))
0.0116        	((1.292271e+01 -3.934730e-01 4.411936e-06) (3.778447e-01 6.748622e-03 3.354340e-06)) ((3.643176e-05 -1.476050e-05 -3.101021e-05) (2.041826e-07 1.454918e-07 4.348228e-04))
0.0117        	((1.287838e+01 -3.949084e-01 4.325379e-06) (3.772698e-01 6.739960e-03 3.341857e-06)) ((3.482054e-05 -7.140163e-06 -3.107870e-05) (2.039940e-07 1.447397e-07 4.351108e-04))
0.0118        	((1.283696e+01 -3.966132e-01 4.624536e-06) (3.767442e-01 6.737515e-03 3.276421e-06)) ((3.419390e-05 -3.507650e-06 -3.105611e-05) (2.149962e-07 1.380616e-07 4.352611e-04))
0.0119        	((1.279187e+01 -3.985068e-01 4.358046e-06) (3.761801e-01 6.728342e-03 3.276282e-06)) ((3.514240e-05 -1.214478e-05 -3.112016e-05) (2.053180e-07 1.284092e-07 4.355730e-04))
0.012         	((1.274941e+01 -4.002133e-01 4.259459e-06) (3.756641e-01 6.725407e-03 3.279892e-06)) ((3.589899e-05 -1.090908e-05 -3.112380e-05) (2.072601e-07 1.288870e-07 4.357461e-04))
0.0121        	((1.270885e+01 -4.019229e-01 4.307480e-06) (3.751086e-01 6.716643e-03 3.279445e-06)) ((3.516339e-05 -1.287905e-05 -3.116236e-05) (2.052235e-07 1.307638e-07 4.360575e-04))
0.0122        	((1.266472e+01 -4.037654e-01 4.315818e-06) (3.746017e-01 6.714392e-03 3.275531e-06)) ((3.430551e-05 -8.352518e-06 -3.116628e-05) (2.129740e-07 1.161773e-07 4.362026e-04))
0.0123        	((1.262636e+01 -4.054105e-01 4.564034e-06) (3.740567e-01 6.705625e-03 3.210659e-06)) ((3.515197e-05 -1.087040e-05 -3.122895e-05) (2.069434e-07 1.106067e-07 4.365028e-04))
0.0124        	((1.258214e+01 -4.072210e-01 4.282158e-06) (3.735594e-01 6.703745e-03 3.198253e-06)) ((3.220837e-05 -4.094301e-06 -3.121993e-05) (2.177165e-07 1.207017e-07 4.366509e-04))
0.0125        	((1.254577e+01 -4.089268e-01 4.566731e-06) (3.730230e-01 6.695135e-03 3.120019e-06)) ((3.475691e-05 -9.170907e-06 -3.127179e-05) (2.135601e-07 1.275035e-07 4.369511e-04))
0.0126        	((1.250366e+01 -4.108000e-01 4.375018e-06) (3.725346e-01 6.692535e-03 3.109272e-06)) ((3.075586e-05 -4.902781e-06 -3.128596e-05) (2.178636e-07 1.149236e-07 4.370917e-04))
0.0127        	((1.246395e+01 -4.125084e-01 4.255816e-06) (3.720080e-01 6.683875e-03 3.112484e-06)) ((3.326866e-05 -8.953077e-06 -3.132676e-05) (2.117214e-07 1.137195e-07 4.373954e-04))
0.0128        	((1.242554e+01 -4.144201e-01 4.408577e-06) (3.715279e-01 6.681734e-03 3.088701e-06)) ((3.413667e-05 -1.113090e-05 -3.133944e-05) (2.173288e-07 1.180861e-07 4.375437e-04))
0.0129        	((1.238671e+01 -4.161217e-01 4.098438e-06) (3.710087e-01 6.672825e-03 3.121119e-06)) ((3.096431e-05 -7.073934e-06 -3.138733e-05) (2.169367e-07 1.217013e-07 4.378391e-04))
0.013         	((1.234983e+01 -4.179587e-01 4.471707e-06) (3.705364e-01 6.669911e-03 3.069578e-06)) ((3.177478e-05 -8.140181e-06 -3.139236e-05) (2.251928e-07 1.143316e-07 4.379837e-04))
0.0131        	((1.230994e+01 -4.197322e-01 4.229616e-06) (3.700268e-01 6.660412e-03 3.062609e-06)) ((3.093736e-05 -5.165694e-06 -3.145582e-05) (2.199978e-07 1.107853e-07 4.382758e-04))
0.0132        	((1.227513e+01 -4.216013e-01 4.505030e-06) (3.695633e-01 6.657270e-03 3.003922e-06)) ((3.269087e-05 -9.365430e-06 -3.147732e-05) (2.270874e-07 1.068720e-07 4.384173e-04))
0.0133        	((1.223568e+01 -4.233872e-01 4.206454e-06) (3.690621e-01 6.648174e-03 3.003617e-06)) ((3.063818e-05 -5.198476e-06 -3.151498e-05) (2.237380e-07 1.111417e-07 4.387042e-04))
0.0134        	((1.220072e+01 -4.253716e-01 4.480102e-06) (3.686062e-01 6.645395e-03 2.958218e-06)) ((3.420607e-05 -1.284211e-05 -3.153920e-05) (2.305503e-07 9.766460e-08 4.388469e-04))
0.0135        	((1.216437e+01 -4.270197e-01 4.139343e-06) (3.681141e-01 6.636491e-03 2.979107e-06)) ((2.672417e-05 -3.316220e-06 -3.160148e-05) (2.223400e-07 1.003986e-07 4.391403e-04))
0.0136        	((1.212847e+01 -4.290211e-01 4.454761e-06) (3.676669e-01 6.633985e-03 2.925595e-06)) ((3.415018e-05 -1.318014e-05 -3.161147e-05) (2.263094e-07 1.033370e-07 4.393066e-04))
0.0137        	((1.209229e+01 -4.308020e-01 4.019292e-06) (3.671821e-01 6.625155e-03 2.962743e-06)) ((2.846943e-05 -7.383016e-06 -3.165789e-05) (2.218290e-07 1.068122e-07 4.396020e-04))
0.0138        	((1.205932e+01 -4.326733e-01 4.433447e-06) (3.667421e-01 6.621920e-03 2.920533e-06)) ((3.126125e-05 -9.942542e-06 -3.167050e-05) (2.313963e-07 9.354699e-08 4.397451e-04))
0.0139        	((1.202216e+01 -4.344982e-01 4.173967e-06) (3.662663e-01 6.612387e-03 2.916375e-06)) ((2.967242e-05 -6.856916e-06 -3.172032e-05) (2.277209e-07 9.310742e-08 4.400204e-04))
0.014         	((1.198975e+01 -4.364798e-01 4.474969e-06) (3.658349e-01 6.608536e-03 2.859101e-06)) ((3.432507e-05 -1.529768e-05 -3.173155e-05) (2.342589e-07 9.459020e-08 4.401586e-04))
0.0141        	((1.195507e+01 -4.381365e-01 4.086667e-06) (3.653664e-01 6.598436e-03 2.880642e-06)) ((2.448887e-05 -1.440455e-06 -3.179621e-05) (2.289585e-07 9.893570e-08 4.404217e-04))
0.0142        	((1.192150e+01 -4.403238e-01 4.447961e-06) (3.649414e-01 6.594240e-03 2.828448e-06)) ((3.450713e-05 -1.642182e-05 -3.180322e-05) (2.329540e-07 9.147809e-08 4.405587e-04))
0.0143        	((1.188812e+01 -4.419717e-01 4.016124e-06) (3.644810e-01 6.584154e-03 2.863459e-06)) ((2.575082e-05 -4.557934e-06 -3.186771e-05) (2.244323e-07 9.591591e-08 4.408334e-04))
0.0144        	((1.185641e+01 -4.439958e-01 4.442359e-06) (3.640636e-01 6.580377e-03 2.802138e-06)) ((3.038217e-05 -9.265590e-06 -3.188350e-05) (2.299053e-07 9.242645e-08 4.409770e-04))
0.0145        	((1.182213e+01 -4.458337e-01 3.980642e-06) (3.636095e-01 6.570708e-03 2.835728e-06)) ((2.587072e-05 -5.007306e-06 -3.194091e-05) (2.296467e-07 9.984269e-08 4.412551e-04))
0.0146        	((1.179130e+01 -4.478508e-01 4.427543e-06) (3.631991e-01 6.567106e-03 2.786804e-06)) ((3.110573e-05 -1.067744e-05 -3.195824e-05) (2.338903e-07 8.540074e-08 4.414200e-04))
0.0147        	((1.175924e+01 -4.496881e-01 4.080233e-06) (3.627529e-01 6.558096e-03 2.802301e-06)) ((2.481072e-05 -5.079392e-06 -3.201711e-05) (2.279273e-07 1.003547e-07 4.416824e-04))
0.0148        	((1.172754e+01 -4.517611e-01 4.398249e-06) (3.623520e-01 6.554487e-03 2.755317e-06)) ((3.221681e-05 -1.352333e-05 -3.204528e-05) (2.255224e-07 9.252722e-08 4.418726e-04))
0.0149        	((1.169612e+01 -4.535535e-01 4.027980e-06) (3.619122e-01 6.546105e-03 2.779011e-06)) ((2.391232e-05 -4.896262e-06 -3.208764e-05) (2.236451e-07 1.003282e-07 4.421266e-04))
0.015         	((1.166612e+01 -4.556480e-01 4.364932e-06) (3.615175e-01 6.542466e-03 2.732691e-06)) ((2.934266e-05 -1.069111e-05 -3.212468e-05) (2.283041e-07 8.394323e-08 4.423168e-04))
0.0151        	((1.163415e+01 -4.574810e-01 3.998003e-06) (3.610856e-01 6.534508e-03 2.756549e-06)) ((2.522412e-05 -6.820891e-06 -3.216766e-05) (2.243111e-07 9.349741e-08 4.425801e-04))
0.0152        	((1.160506e+01 -4.595011e-01 4.356513e-06) (3.606976e-01 6.531566e-03 2.708577e-06)) ((2.841746e-05 -8.774434e-06 -3.219250e-05) (2.261195e-07 8.893074e-08 4.427786e-04))
0.0153        	((1.157356e+01 -4.615019e-01 3.962538e-06) (3.602713e-01 6.523535e-03 2.743045e-06)) ((2.595965e-05 -8.867138e-06 -3.224357e-05) (2.231328e-07 9.406866e-08 4.430542e-04))
0.0154        	((1.154599e+01 -4.634485e-01 4.317599e-06) (3.598885e-01 6.520002e-03 2.702868e-06)) ((2.793085e-05 -1.119426e-05 -3.228582e-05) (2.278862e-07 8.579311e-08 4.432605e-04))
0.0155        	((1.151501e+01 -4.654580e-01 4.136867e-06) (3.594691e-01 6.511944e-03 2.698279e-06)) ((2.613651e-05 -8.737532e-06 -3.232965e-05) (2.251788e-07 9.272882e-08 4.435432e-04))
0.0156        	((1.148600e+01 -4.674967e-01 4.110706e-06) (3.590932e-01 6.508361e-03 2.696585e-06)) ((2.891568e-05 -1.425297e-05 -3.237416e-05) (2.284329e-07 9.015112e-08 4.437432e-04))
0.0157        	((1.145796e+01 -4.694156e-01 4.240749e-06) (3.586800e-01 6.500096e-03 2.659856e-06)) ((2.643910e-05 -9.034863e-06 -3.242456e-05) (2.278575e-07 9.959594e-08 4.440133e-04))
0.0158        	((1.142949e+01 -4.714548e-01 4.061326e-06) (3.583099e-01 6.496183e-03 2.684816e-06)) ((2.375045e-05 -8.988192e-06 -3.246736e-05) (2.284212e-07 8.269790e-08 4.442183e-04))
0.0159        	((1.140138e+01 -4.735138e-01 4.266023e-06) (3.579038e-01 6.487688e-03 2.653896e-06)) ((2.885691e-05 -1.233096e-05 -3.252449e-05) (2.233498e-07 8.199182e-08 4.444980e-04))