# Forces      
# CofR        : (0.000000e+00 0.000000e+00 0.000000e+00)
# Time        forces(pressure viscous)	moments(pressure viscous)
0             	((-2.094043e-01 1.258099e+03 4.106953e+03) (4.121806e-03 -7.366885e-06 -4.345865e-05)) ((-1.018522e+03 5.208818e+02 -1.782570e+02) (1.944653e-05 6.296548e-04 1.121727e-03))
0.001         	((-4.699738e+01 8.994168e+02 1.667546e+03) (3.787958e-03 2.135584e-03 -5.413490e-03)) ((-5.269139e+02 -6.045179e+02 7.293943e+01) (1.844774e-03 -2.805748e-03 -2.264207e-06))
0.002         	((-1.273798e+02 5.879227e+02 9.146451e+01) (3.807433e-03 5.715665e-03 -1.435277e-02)) ((-1.810150e+02 -2.407984e+03 4.757008e+02) (4.857272e-03 -1.079742e-02 -2.843223e-03))
0.003         	((-1.186799e+02 1.071844e+03 2.528368e+03) (4.024532e-03 7.069679e-03 -1.753897e-02)) ((-7.157772e+02 -1.891181e+03 3.586320e+02) (5.948005e-03 -1.835470e-02 -5.193019e-03))
0.004         	((-1.288622e+02 9.555535e+02 1.961900e+03) (4.180308e-03 8.938792e-03 -2.201951e-02)) ((-5.916348e+02 -2.139165e+03 4.161383e+02) (7.462827e-03 -2.619598e-02 -7.808246e-03))
0.005         	((-1.458959e+02 7.117513e+02 7.317065e+02) (4.283645e-03 1.192093e-02 -2.922517e-02)) ((-3.218345e+02 -2.607382e+03 5.228074e+02) (9.910428e-03 -3.475826e-02 -1.088623e-02))
0.006         	((-1.206967e+02 1.034837e+03 2.354672e+03) (4.421498e-03 1.341978e-02 -3.239124e-02)) ((-6.777749e+02 -1.903556e+03 3.637616e+02) (1.105329e-02 -4.125710e-02 -1.324260e-02))
0.007         	((-1.307457e+02 8.888181e+02 1.631688e+03) (4.546674e-03 1.560574e-02 -3.733392e-02)) ((-5.191833e+02 -2.181578e+03 4.278134e+02) (1.277080e-02 -4.843063e-02 -1.593448e-02))
0.008         	((-1.372115e+02 7.931165e+02 1.147568e+03) (4.665223e-03 1.822445e-02 -4.338749e-02)) ((-4.128810e+02 -2.359925e+03 4.687599e+02) (1.486032e-02 -5.601941e-02 -1.878920e-02))
0.009         	((-1.215974e+02 9.871197e+02 2.125572e+03) (4.801770e-03 1.995663e-02 -4.704193e-02)) ((-6.272816e+02 -1.929946e+03 3.721081e+02) (1.617165e-02 -6.239241e-02 -2.121089e-02))
0.01          	((-1.298256e+02 8.630262e+02 1.509428e+03) (4.924053e-03 2.226506e-02 -5.219461e-02)) ((-4.920031e+02 -2.163257e+03 4.260109e+02) (1.797238e-02 -6.934044e-02 -2.389459e-02))
0.011         	((-1.307835e+02 8.384120e+02 1.384539e+03) (5.046378e-03 2.468262e-02 -5.760444e-02)) ((-4.644700e+02 -2.192453e+03 4.331808e+02) (1.986724e-02 -7.631141e-02 -2.659393e-02))
0.012         	((-1.213790e+02 9.473965e+02 1.937120e+03) (5.176901e-03 2.660507e-02 -6.166895e-02)) ((-5.855311e+02 -1.939192e+03 3.768210e+02) (2.132775e-02 -8.256090e-02 -2.904340e-02))
0.013         	((-1.274049e+02 8.545590e+02 1.476299e+03) (5.296456e-03 2.895805e-02 -6.684811e-02)) ((-4.842743e+02 -2.109451e+03 4.163989e+02) (2.315726e-02 -8.922526e-02 -3.168087e-02))
0.014         	((-1.259218e+02 8.606946e+02 1.508533e+03) (5.416652e-03 3.128378e-02 -7.193167e-02)) ((-4.911622e+02 -2.073599e+03 4.091929e+02) (2.496524e-02 -9.576324e-02 -3.427702e-02))
0.015         	((-1.205011e+02 9.170344e+02 1.797253e+03) (5.539745e-03 3.335760e-02 -7.631777e-02)) ((-5.543023e+02 -1.931007e+03 3.779663e+02) (2.655206e-02 -1.018863e-01 -3.674011e-02))
0.016         	((-1.244340e+02 8.528717e+02 1.480377e+03) (5.652154e-03 3.573093e-02 -8.148332e-02)) ((-4.845765e+02 -2.042532e+03 4.044786e+02) (2.840110e-02 -1.082949e-01 -3.932735e-02))
0.017         	((-1.221895e+02 8.684113e+02 1.561820e+03) (5.766364e-03 3.804028e-02 -8.646194e-02)) ((-5.022065e+02 -1.986698e+03 3.929151e+02) (3.019802e-02 -1.145656e-01 -4.186610e-02))
0.018         	((-1.191234e+02 8.948047e+02 1.700565e+03) (5.882193e-03 4.024197e-02 -9.113948e-02)) ((-5.324420e+02 -1.908303e+03 3.764585e+02) (3.190338e-02 -1.206425e-01 -4.434779e-02))
0.019         	((-1.214031e+02 8.526884e+02 1.494640e+03) (5.993246e-03 4.265070e-02 -9.633478e-02)) ((-4.870110e+02 -1.974409e+03 3.927558e+02) (3.378544e-02 -1.268963e-01 -4.692118e-02))
0.02          	((-1.191647e+02 8.687404e+02 1.580740e+03) (6.105801e-03 4.500219e-02 -1.013354e-01)) ((-5.056148e+02 -1.917484e+03 3.813257e+02) (3.561111e-02 -1.329990e-01 -4.946456e-02))
0.021         	((-1.175654e+02 8.779463e+02 1.633959e+03) (6.215749e-03 4.732267e-02 -1.062500e-01)) ((-5.170449e+02 -1.876457e+03 3.735768e+02) (3.741613e-02 -1.390281e-01 -5.198328e-02))
0.022         	((-1.188632e+02 8.518443e+02 1.509109e+03) (6.321314e-03 4.977725e-02 -1.115178e-01)) ((-4.894081e+02 -1.910901e+03 3.829215e+02) (3.934552e-02 -1.452002e-01 -5.455834e-02))
0.023         	((-1.163393e+02 8.648355e+02 1.579940e+03) (6.426750e-03 5.218443e-02 -1.166624e-01)) ((-5.045665e+02 -1.859028e+03 3.724481e+02) (4.124345e-02 -1.512963e-01 -5.709551e-02))
0.024         	((-1.152021e+02 8.652620e+02 1.589221e+03) (6.529323e-03 5.460332e-02 -1.218345e-01)) ((-5.062546e+02 -1.836564e+03 3.689702e+02) (4.315827e-02 -1.573805e-01 -5.962952e-02))
0.025         	((-1.155054e+02 8.499345e+02 1.518872e+03) (6.628941e-03 5.710942e-02 -1.272269e-01)) ((-4.905094e+02 -1.847912e+03 3.731629e+02) (4.515343e-02 -1.635351e-01 -6.219818e-02))
0.026         	((-1.139235e+02 8.583099e+02 1.568628e+03) (6.725440e-03 5.959030e-02 -1.325333e-01)) ((-5.010663e+02 -1.808437e+03 3.659784e+02) (4.712949e-02 -1.696119e-01 -6.474513e-02))
0.027         	((-1.131557e+02 8.559538e+02 1.564406e+03) (6.819613e-03 6.210159e-02 -1.378934e-01)) ((-4.997928e+02 -1.793623e+03 3.644489e+02) (4.913092e-02 -1.756639e-01 -6.730451e-02))
0.028         	((-1.129969e+02 8.459164e+02 1.521904e+03) (6.911572e-03 6.467736e-02 -1.433719e-01)) ((-4.900695e+02 -1.793127e+03 3.661442e+02) (5.118019e-02 -1.816888e-01 -6.989085e-02))
0.029         	((-1.117426e+02 8.510271e+02 1.555997e+03) (7.001822e-03 6.725364e-02 -1.488608e-01)) ((-4.971666e+02 -1.762191e+03 3.611309e+02) (5.323952e-02 -1.877659e-01 -7.248497e-02))
0.03          	((-1.112592e+02 8.473047e+02 1.545654e+03) (7.088406e-03 6.987409e-02 -1.545246e-01)) ((-4.945410e+02 -1.750827e+03 3.605533e+02) (5.536242e-02 -1.940499e-01 -7.511021e-02))
0.031         	((-1.109042e+02 8.409804e+02 1.522613e+03) (7.173417e-03 7.254579e-02 -1.602614e-01)) ((-4.890684e+02 -1.743595e+03 3.608760e+02) (5.751813e-02 -2.002855e-01 -7.776167e-02))
0.032         	((-1.099292e+02 8.437374e+02 1.545580e+03) (7.278853e-03 7.524727e-02 -1.659979e-01)) ((-4.937087e+02 -1.718762e+03 3.573903e+02) (5.967810e-02 -2.064894e-01 -8.045802e-02))
0.033         	((-1.094700e+02 8.387768e+02 1.529921e+03) (7.383432e-03 7.799771e-02 -1.718190e-01)) ((-4.898443e+02 -1.709190e+03 3.572975e+02) (6.187420e-02 -2.126898e-01 -8.318540e-02))
0.034         	((-1.090125e+02 8.352216e+02 1.521370e+03) (7.486353e-03 8.079016e-02 -1.777140e-01)) ((-4.875437e+02 -1.697995e+03 3.569162e+02) (6.410322e-02 -2.188886e-01 -8.594026e-02))
0.035         	((-1.082471e+02 8.356216e+02 1.533266e+03) (7.588754e-03 8.360593e-02 -1.836339e-01)) ((-4.897111e+02 -1.678305e+03 3.547403e+02) (6.634907e-02 -2.250640e-01 -8.871364e-02))
0.036         	((-1.078812e+02 8.311072e+02 1.520344e+03) (7.690615e-03 8.646942e-02 -1.896442e-01)) ((-4.864379e+02 -1.669122e+03 3.548493e+02) (6.863372e-02 -2.312525e-01 -9.151872e-02))
0.037         	((-1.073839e+02 8.284807e+02 1.517361e+03) (7.792070e-03 8.937677e-02 -1.957264e-01)) ((-4.853120e+02 -1.656137e+03 3.542739e+02) (7.095105e-02 -2.374512e-01 -9.435902e-02))
0.038         	((-1.067964e+02 8.275142e+02 1.523135e+03) (7.892631e-03 9.231670e-02 -2.018599e-01)) ((-4.861067e+02 -1.640239e+03 3.531328e+02) (7.329450e-02 -2.436506e-01 -9.722564e-02))
0.039         	((-1.064327e+02 8.232577e+02 1.512678e+03) (7.991592e-03 9.530447e-02 -2.080916e-01)) ((-4.833012e+02 -1.630425e+03 3.533628e+02) (7.567976e-02 -2.498849e-01 -1.001250e-01))
0.04          	((-1.058941e+02 8.212201e+02 1.512456e+03) (8.091993e-03 9.833669e-02 -2.143884e-01)) ((-4.827998e+02 -1.617300e+03 3.525647e+02) (7.809481e-02 -2.561195e-01 -1.030632e-01))
0.041         	((-1.054019e+02 8.194051e+02 1.514432e+03) (8.190108e-03 1.014033e-01 -2.207568e-01)) ((-4.827224e+02 -1.603879e+03 3.520960e+02) (8.054407e-02 -2.623738e-01 -1.060233e-01))
0.042         	((-1.050585e+02 8.155583e+02 1.506292e+03) (8.285979e-03 1.045156e-01 -2.272181e-01)) ((-4.804007e+02 -1.593921e+03 3.523646e+02) (8.303470e-02 -2.686535e-01 -1.090123e-01))
0.043         	((-1.046790e+02 8.135459e+02 1.507244e+03) (8.383319e-03 1.076723e-01 -2.337482e-01)) ((-4.801042e+02 -1.581538e+03 3.521379e+02) (8.555731e-02 -2.749380e-01 -1.120364e-01))
0.044         	((-1.042333e+02 8.111405e+02 1.506213e+03) (8.483611e-03 1.108690e-01 -2.403622e-01)) ((-4.793478e+02 -1.569657e+03 3.519886e+02) (8.811873e-02 -2.812487e-01 -1.150820e-01))
0.045         	((-1.033380e+02 8.080962e+02 1.501472e+03) (8.586709e-03 1.141067e-01 -2.470698e-01)) ((-4.776914e+02 -1.557627e+03 3.516264e+02) (9.072389e-02 -2.875839e-01 -1.181388e-01))
0.046         	((-1.028244e+02 8.055705e+02 1.500583e+03) (8.694687e-03 1.173928e-01 -2.539142e-01)) ((-4.769130e+02 -1.545742e+03 3.516099e+02) (9.338366e-02 -2.940541e-01 -1.212290e-01))
0.047         	((-1.022923e+02 8.029789e+02 1.499516e+03) (8.804052e-03 1.207572e-01 -2.609878e-01)) ((-4.760871e+02 -1.534141e+03 3.516642e+02) (9.612325e-02 -3.008430e-01 -1.244148e-01))
0.048         	((-1.016746e+02 7.998427e+02 1.496322e+03) (8.920976e-03 1.241478e-01 -2.681131e-01)) ((-4.747189e+02 -1.522940e+03 3.519723e+02) (9.889590e-02 -3.075704e-01 -1.275784e-01))
0.049         	((-1.007635e+02 7.971881e+02 1.495259e+03) (9.044987e-03 1.275684e-01 -2.753224e-01)) ((-4.737946e+02 -1.510051e+03 3.517301e+02) (1.017111e-01 -3.143090e-01 -1.307291e-01))
0.05          	((-9.971611e+01 7.943465e+02 1.493389e+03) (9.175919e-03 1.310246e-01 -2.826480e-01)) ((-4.726532e+02 -1.497230e+03 3.514850e+02) (1.045778e-01 -3.211201e-01 -1.338743e-01))
0.051         	((-9.841779e+01 7.913905e+02 1.490713e+03) (9.312778e-03 1.345225e-01 -2.900877e-01)) ((-4.712808e+02 -1.484039e+03 3.510437e+02) (1.074974e-01 -3.279848e-01 -1.370215e-01))
0.052         	((-9.652395e+01 7.887342e+02 1.489444e+03) (9.445545e-03 1.380604e-01 -2.976239e-01)) ((-4.700817e+02 -1.468037e+03 3.499615e+02) (1.104689e-01 -3.348568e-01 -1.401651e-01))
0.053         	((-9.821418e+01 7.847611e+02 1.485615e+03) (9.728167e-03 1.414861e-01 -3.052016e-01)) ((-4.689389e+02 -1.467145e+03 3.532589e+02) (1.135269e-01 -3.415758e-01 -1.429147e-01))
0.054         	((-9.784587e+01 7.829444e+02 1.490650e+03) (1.002524e-02 1.449622e-01 -3.129050e-01)) ((-4.694203e+02 -1.455075e+03 3.535212e+02) (1.166381e-01 -3.483996e-01 -1.456972e-01))
0.055         	((-9.751412e+01 7.793390e+02 1.487116e+03) (1.031813e-02 1.484975e-01 -3.207697e-01)) ((-4.679791e+02 -1.445958e+03 3.545057e+02) (1.198138e-01 -3.553651e-01 -1.485178e-01))
0.056         	((-9.744689e+01 7.757406e+02 1.484416e+03) (1.059766e-02 1.520926e-01 -3.287707e-01)) ((-4.667115e+02 -1.437894e+03 3.560134e+02) (1.230491e-01 -3.624189e-01 -1.513816e-01))
0.057         	((-9.734612e+01 7.731858e+02 1.487005e+03) (1.087107e-02 1.557494e-01 -3.368918e-01)) ((-4.666248e+02 -1.428070e+03 3.570352e+02) (1.263401e-01 -3.695388e-01 -1.542990e-01))
0.058         	((-9.737687e+01 7.693899e+02 1.484089e+03) (1.113596e-02 1.594773e-01 -3.451573e-01)) ((-4.652991e+02 -1.420987e+03 3.588260e+02) (1.296942e-01 -3.767456e-01 -1.572818e-01))
0.059         	((-9.747456e+01 7.657827e+02 1.482816e+03) (1.139117e-02 1.632741e-01 -3.535655e-01)) ((-4.642942e+02 -1.413325e+03 3.606753e+02) (1.331113e-01 -3.840408e-01 -1.603279e-01))
0.06          	((-9.704808e+01 7.633413e+02 1.483472e+03) (1.164285e-02 1.671404e-01 -3.621215e-01)) ((-4.639640e+02 -1.404381e+03 3.607448e+02) (1.365924e-01 -3.914358e-01 -1.634397e-01))
0.061         	((-9.680620e+01 7.603813e+02 1.481643e+03) (1.188905e-02 1.710826e-01 -3.708343e-01)) ((-4.630876e+02 -1.397294e+03 3.614275e+02) (1.401401e-01 -3.989290e-01 -1.666243e-01))
0.062         	((-9.675000e+01 7.571523e+02 1.481274e+03) (1.212343e-02 1.750954e-01 -3.797010e-01)) ((-4.623468e+02 -1.389251e+03 3.626547e+02) (1.437548e-01 -4.065238e-01 -1.698738e-01))
0.063         	((-9.671991e+01 7.543054e+02 1.482366e+03) (1.234971e-02 1.791563e-01 -3.889285e-01)) ((-4.619623e+02 -1.381440e+03 3.637432e+02) (1.475106e-01 -4.146445e-01 -1.731418e-01))
0.064         	((-9.621819e+01 7.510421e+02 1.480166e+03) (1.257105e-02 1.832843e-01 -3.983092e-01)) ((-4.608388e+02 -1.373212e+03 3.642313e+02) (1.513306e-01 -4.228442e-01 -1.764520e-01))
0.065         	((-9.567764e+01 7.481168e+02 1.479342e+03) (1.275414e-02 1.875829e-01 -4.079100e-01)) ((-4.600619e+02 -1.364754e+03 3.644318e+02) (1.552024e-01 -4.312877e-01 -1.800729e-01))
0.066         	((-9.513463e+01 7.458224e+02 1.480677e+03) (1.291341e-02 1.920067e-01 -4.177228e-01)) ((-4.598324e+02 -1.355971e+03 3.642452e+02) (1.591438e-01 -4.399376e-01 -1.838890e-01))
0.067         	((-9.471659e+01 7.429320e+02 1.478227e+03) (1.306817e-02 1.965041e-01 -4.277310e-01)) ((-4.588334e+02 -1.348737e+03 3.640927e+02) (1.631793e-01 -4.487070e-01 -1.877543e-01))
0.068         	((-9.405944e+01 7.408993e+02 1.477878e+03) (1.322387e-02 2.010809e-01 -4.379386e-01)) ((-4.584033e+02 -1.339739e+03 3.627186e+02) (1.673102e-01 -4.576032e-01 -1.916801e-01))
0.069         	((-9.290307e+01 7.401851e+02 1.479244e+03) (1.337662e-02 2.057263e-01 -4.483651e-01)) ((-4.586128e+02 -1.329080e+03 3.590823e+02) (1.715423e-01 -4.666679e-01 -1.956407e-01))
0.07          	((-9.296628e+01 7.363574e+02 1.475928e+03) (1.352720e-02 2.104600e-01 -4.589976e-01)) ((-4.572085e+02 -1.324327e+03 3.609785e+02) (1.758722e-01 -4.758484e-01 -1.996682e-01))
0.071         	((-9.283599e+01 7.335387e+02 1.476803e+03) (1.367796e-02 2.152807e-01 -4.698156e-01)) ((-4.567707e+02 -1.317382e+03 3.619771e+02) (1.802938e-01 -4.851099e-01 -2.037651e-01))
0.072         	((-9.264368e+01 7.308657e+02 1.477895e+03) (1.382725e-02 2.201884e-01 -4.808446e-01)) ((-4.563978e+02 -1.310317e+03 3.627790e+02) (1.848146e-01 -4.944973e-01 -2.079296e-01))
0.073         	((-9.263477e+01 7.274816e+02 1.476539e+03) (1.397659e-02 2.251896e-01 -4.921224e-01)) ((-4.554108e+02 -1.304918e+03 3.643958e+02) (1.894462e-01 -5.040745e-01 -2.121669e-01))
0.074         	((-9.262546e+01 7.243350e+02 1.477380e+03) (1.412332e-02 2.302851e-01 -5.036361e-01)) ((-4.548405e+02 -1.298739e+03 3.661399e+02) (1.941864e-01 -5.138136e-01 -2.164809e-01))
0.075         	((-9.265797e+01 7.210574e+02 1.477231e+03) (1.427035e-02 2.354797e-01 -5.153887e-01)) ((-4.540944e+02 -1.292941e+03 3.678321e+02) (1.990368e-01 -5.237048e-01 -2.208774e-01))
0.076         	((-9.270528e+01 7.176237e+02 1.477094e+03) (1.441765e-02 2.407714e-01 -5.273624e-01)) ((-4.533067e+02 -1.287513e+03 3.698398e+02) (2.039964e-01 -5.336948e-01 -2.253487e-01))
0.077         	((-9.284295e+01 7.142572e+02 1.477395e+03) (1.456818e-02 2.461758e-01 -5.395971e-01)) ((-4.526229e+02 -1.282415e+03 3.719414e+02) (2.090635e-01 -5.438859e-01 -2.299347e-01))
0.078         	((-9.305673e+01 7.107193e+02 1.478027e+03) (1.472066e-02 2.517058e-01 -5.521729e-01)) ((-4.519588e+02 -1.276894e+03 3.744192e+02) (2.142639e-01 -5.544322e-01 -2.346605e-01))
0.079         	((-9.363516e+01 7.072008e+02 1.477981e+03) (1.488703e-02 2.572722e-01 -5.650834e-01)) ((-4.512417e+02 -1.274274e+03 3.771611e+02) (2.196074e-01 -5.653318e-01 -2.393280e-01))
0.08          	((-9.454721e+01 7.027093e+02 1.479756e+03) (1.504621e-02 2.628937e-01 -5.784678e-01)) ((-4.506495e+02 -1.269404e+03 3.817145e+02) (2.251560e-01 -5.768443e-01 -2.440041e-01))
0.081         	((-9.426723e+01 6.999513e+02 1.479718e+03) (1.519913e-02 2.686173e-01 -5.921289e-01)) ((-4.499142e+02 -1.265378e+03 3.827427e+02) (2.308291e-01 -5.885593e-01 -2.487736e-01))
0.082         	((-9.481965e+01 6.957505e+02 1.480297e+03) (1.532025e-02 2.744028e-01 -6.061507e-01)) ((-4.491877e+02 -1.260570e+03 3.862416e+02) (2.366633e-01 -6.006644e-01 -2.535686e-01))
0.083         	((-9.449134e+01 6.930083e+02 1.480263e+03) (1.545377e-02 2.803004e-01 -6.203343e-01)) ((-4.484521e+02 -1.257351e+03 3.874425e+02) (2.425855e-01 -6.127151e-01 -2.584771e-01))
0.084         	((-9.550476e+01 6.876853e+02 1.478948e+03) (1.556656e-02 2.862741e-01 -6.347883e-01)) ((-4.471069e+02 -1.253895e+03 3.925102e+02) (2.486329e-01 -6.249654e-01 -2.634430e-01))
0.085         	((-9.515215e+01 6.857422e+02 1.481728e+03) (1.569724e-02 2.923137e-01 -6.494939e-01)) ((-4.470674e+02 -1.249887e+03 3.930074e+02) (2.547813e-01 -6.374420e-01 -2.684620e-01))
0.086         	((-9.608621e+01 6.809582e+02 1.482934e+03) (1.579650e-02 2.984108e-01 -6.644233e-01)) ((-4.462882e+02 -1.245827e+03 3.978096e+02) (2.610344e-01 -6.500708e-01 -2.735220e-01))
0.087         	((-9.572036e+01 6.777564e+02 1.481013e+03) (1.592197e-02 3.046085e-01 -6.796116e-01)) ((-4.451559e+02 -1.243017e+03 3.989439e+02) (2.673920e-01 -6.629024e-01 -2.786780e-01))
0.088         	((-9.629217e+01 6.732907e+02 1.482515e+03) (1.604010e-02 3.108720e-01 -6.950258e-01)) ((-4.444255e+02 -1.238952e+03 4.030764e+02) (2.738512e-01 -6.759027e-01 -2.838804e-01))
0.089         	((-9.621281e+01 6.702968e+02 1.483609e+03) (1.616454e-02 3.172112e-01 -7.106626e-01)) ((-4.439480e+02 -1.235215e+03 4.047469e+02) (2.804060e-01 -6.890641e-01 -2.891451e-01))
0.09          	((-9.670192e+01 6.664113e+02 1.482970e+03) (1.629717e-02 3.235955e-01 -7.265541e-01)) ((-4.430069e+02 -1.233195e+03 4.078115e+02) (2.870751e-01 -7.024473e-01 -2.944043e-01))
0.091         	((-9.701696e+01 6.626516e+02 1.485274e+03) (1.643535e-02 3.300244e-01 -7.427928e-01)) ((-4.424905e+02 -1.228961e+03 4.111032e+02) (2.938847e-01 -7.162632e-01 -2.996636e-01))
0.092         	((-9.702644e+01 6.589392e+02 1.485801e+03) (1.651923e-02 3.364456e-01 -7.598608e-01)) ((-4.416542e+02 -1.224279e+03 4.135956e+02) (3.010154e-01 -7.315080e-01 -3.048366e-01))
0.093         	((-9.722837e+01 6.551408e+02 1.485866e+03) (1.663029e-02 3.430083e-01 -7.766913e-01)) ((-4.407596e+02 -1.220926e+03 4.163911e+02) (3.080651e-01 -7.459614e-01 -3.102032e-01))
0.094         	((-9.734606e+01 6.518876e+02 1.487955e+03) (1.675045e-02 3.496671e-01 -7.935724e-01)) ((-4.403661e+02 -1.216891e+03 4.186696e+02) (3.151415e-01 -7.602345e-01 -3.156796e-01))
0.095         	((-9.719488e+01 6.487109e+02 1.488123e+03) (1.687362e-02 3.564023e-01 -8.106118e-01)) ((-4.396715e+02 -1.212432e+03 4.198869e+02) (3.222876e-01 -7.745364e-01 -3.212221e-01))
0.096         	((-9.750742e+01 6.446993e+02 1.488031e+03) (1.700798e-02 3.632137e-01 -8.278835e-01)) ((-4.387155e+02 -1.210368e+03 4.229847e+02) (3.295256e-01 -7.890282e-01 -3.268302e-01))
0.097         	((-9.759714e+01 6.415062e+02 1.490648e+03) (1.714906e-02 3.700923e-01 -8.453436e-01)) ((-4.384157e+02 -1.206659e+03 4.252544e+02) (3.368444e-01 -8.036339e-01 -3.324889e-01))
0.098         	((-9.774999e+01 6.378145e+02 1.490269e+03) (1.729783e-02 3.770367e-01 -8.629657e-01)) ((-4.375015e+02 -1.204334e+03 4.275550e+02) (3.442357e-01 -8.182864e-01 -3.381893e-01))
0.099         	((-9.774085e+01 6.345172e+02 1.491177e+03) (1.743258e-02 3.840262e-01 -8.807286e-01)) ((-4.368882e+02 -1.201029e+03 4.294116e+02) (3.517113e-01 -8.329418e-01 -3.438907e-01))
0.1           	((-9.731393e+01 6.315864e+02 1.494187e+03) (1.751242e-02 3.910821e-01 -8.986962e-01)) ((-4.366438e+02 -1.195887e+03 4.308304e+02) (3.592613e-01 -8.477956e-01 -3.496594e-01))
0.101         	((-9.714683e+01 6.278330e+02 1.492218e+03) (1.760043e-02 3.982141e-01 -9.168423e-01)) ((-4.353911e+02 -1.193349e+03 4.325240e+02) (3.668756e-01 -8.627681e-01 -3.554950e-01))
0.102         	((-9.715961e+01 6.243729e+02 1.493881e+03) (1.768573e-02 4.054060e-01 -9.351492e-01)) ((-4.348409e+02 -1.189875e+03 4.347494e+02) (3.745483e-01 -8.778448e-01 -3.613779e-01))
0.103         	((-9.693441e+01 6.214234e+02 1.496113e+03) (1.777574e-02 4.126561e-01 -9.536078e-01)) ((-4.345038e+02 -1.185705e+03 4.360232e+02) (3.822740e-01 -8.930147e-01 -3.673041e-01))
0.104         	((-9.712574e+01 6.174427e+02 1.495403e+03) (1.787084e-02 4.199548e-01 -9.722413e-01)) ((-4.334156e+02 -1.184344e+03 4.388011e+02) (3.900593e-01 -9.083233e-01 -3.732480e-01))
0.105         	((-9.702197e+01 6.141140e+02 1.497200e+03) (1.797321e-02 4.272999e-01 -9.910519e-01)) ((-4.328905e+02 -1.180951e+03 4.407366e+02) (3.979061e-01 -9.237830e-01 -3.792150e-01))
0.106         	((-9.682769e+01 6.112186e+02 1.499289e+03) (1.807374e-02 4.347045e-01 -1.010169e+00)) ((-4.325219e+02 -1.177100e+03 4.419863e+02) (4.058858e-01 -9.396275e-01 -3.852319e-01))
0.107         	((-9.685926e+01 6.076111e+02 1.499252e+03) (1.816527e-02 4.421679e-01 -1.029321e+00)) ((-4.316001e+02 -1.174082e+03 4.439487e+02) (4.138710e-01 -9.553337e-01 -3.912957e-01))
0.108         	((-9.631943e+01 6.049982e+02 1.500149e+03) (1.825513e-02 4.497114e-01 -1.048466e+00)) ((-4.310574e+02 -1.168840e+03 4.440334e+02) (4.218405e-01 -9.708159e-01 -3.974475e-01))
0.109         	((-9.640694e+01 6.014436e+02 1.500433e+03) (1.833554e-02 4.572904e-01 -1.067568e+00)) ((-4.301644e+02 -1.167466e+03 4.463948e+02) (4.297993e-01 -9.860024e-01 -4.035973e-01))
0.11          	((-9.620332e+01 5.983423e+02 1.502206e+03) (1.841506e-02 4.649227e-01 -1.086754e+00)) ((-4.296792e+02 -1.163981e+03 4.481139e+02) (4.377772e-01 -1.001189e+00 -4.097793e-01))
0.111         	((-9.617467e+01 5.948564e+02 1.502451e+03) (1.849830e-02 4.726079e-01 -1.106066e+00)) ((-4.287931e+02 -1.162050e+03 4.502685e+02) (4.457849e-01 -1.016468e+00 -4.159899e-01))
0.112         	((-9.598068e+01 5.921406e+02 1.503478e+03) (1.852828e-02 4.803542e-01 -1.125168e+00)) ((-4.282463e+02 -1.160117e+03 4.515131e+02) (4.537917e-01 -1.031059e+00 -4.222474e-01))
0.113         	((-9.565580e+01 5.892990e+02 1.504639e+03) (1.855237e-02 4.881379e-01 -1.144410e+00)) ((-4.276069e+02 -1.156784e+03 4.527058e+02) (4.618227e-01 -1.045795e+00 -4.285049e-01))
0.114         	((-9.528474e+01 5.860423e+02 1.504918e+03) (1.857488e-02 4.959397e-01 -1.163775e+00)) ((-4.266903e+02 -1.154098e+03 4.542973e+02) (4.698887e-01 -1.060604e+00 -4.347324e-01))
0.115         	((-9.466445e+01 5.832839e+02 1.506587e+03) (1.860492e-02 5.037760e-01 -1.183232e+00)) ((-4.261493e+02 -1.150395e+03 4.551514e+02) (4.779752e-01 -1.075449e+00 -4.409498e-01))
0.116         	((-9.403440e+01 5.804217e+02 1.507667e+03) (1.863546e-02 5.116774e-01 -1.202804e+00)) ((-4.254991e+02 -1.147019e+03 4.560328e+02) (4.860737e-01 -1.090390e+00 -4.472326e-01))
0.117         	((-9.309025e+01 5.773314e+02 1.508507e+03) (1.868888e-02 5.196093e-01 -1.222481e+00)) ((-4.246546e+02 -1.142821e+03 4.569856e+02) (4.941975e-01 -1.105401e+00 -4.534837e-01))
0.118         	((-9.201554e+01 5.743686e+02 1.509491e+03) (1.882890e-02 5.276806e-01 -1.242600e+00)) ((-4.238244e+02 -1.138084e+03 4.576705e+02) (5.024152e-01 -1.121206e+00 -4.599282e-01))
0.119         	((-9.119578e+01 5.710208e+02 1.509533e+03) (1.891429e-02 5.356772e-01 -1.262293e+00)) ((-4.227742e+02 -1.135229e+03 4.589817e+02) (5.105256e-01 -1.135966e+00 -4.661385e-01))
0.12          	((-9.023090e+01 5.681297e+02 1.510917e+03) (1.898718e-02 5.436663e-01 -1.281912e+00)) ((-4.220857e+02 -1.131242e+03 4.596423e+02) (5.186113e-01 -1.150459e+00 -4.722588e-01))
0.121         	((-8.909715e+01 5.652408e+02 1.512219e+03) (1.904966e-02 5.516352e-01 -1.301516e+00)) ((-4.213787e+02 -1.127184e+03 4.600919e+02) (5.266902e-01 -1.164822e+00 -4.782730e-01))
0.122         	((-8.789528e+01 5.624277e+02 1.512574e+03) (1.911214e-02 5.596350e-01 -1.321142e+00)) ((-4.204841e+02 -1.122924e+03 4.600171e+02) (5.347527e-01 -1.179153e+00 -4.842733e-01))
0.123         	((-8.666999e+01 5.601173e+02 1.513019e+03) (1.919139e-02 5.676867e-01 -1.340763e+00)) ((-4.197059e+02 -1.118216e+03 4.591545e+02) (5.427847e-01 -1.193402e+00 -4.902921e-01))
0.124         	((-8.571485e+01 5.576641e+02 1.514289e+03) (1.928058e-02 5.757853e-01 -1.360339e+00)) ((-4.190698e+02 -1.114479e+03 4.592005e+02) (5.507711e-01 -1.207504e+00 -4.963244e-01))
0.125         	((-8.338470e+01 5.565119e+02 1.515357e+03) (1.937206e-02 5.839225e-01 -1.379962e+00)) ((-4.185873e+02 -1.105747e+03 4.557395e+02) (5.587459e-01 -1.221638e+00 -5.023582e-01))
0.126         	((-8.179343e+01 5.546410e+02 1.514287e+03) (1.946390e-02 5.920919e-01 -1.399643e+00)) ((-4.176288e+02 -1.100813e+03 4.539684e+02) (5.667222e-01 -1.235787e+00 -5.083932e-01))
0.127         	((-8.010271e+01 5.532820e+02 1.516201e+03) (1.956036e-02 6.003015e-01 -1.419323e+00)) ((-4.173398e+02 -1.095014e+03 4.519809e+02) (5.746713e-01 -1.249874e+00 -5.144326e-01))
0.128         	((-7.833893e+01 5.518827e+02 1.517400e+03) (1.967504e-02 6.085907e-01 -1.438995e+00)) ((-4.168979e+02 -1.089214e+03 4.498396e+02) (5.825673e-01 -1.263928e+00 -5.205792e-01))
0.129         	((-7.701480e+01 5.495904e+02 1.516868e+03) (1.979751e-02 6.169447e-01 -1.458659e+00)) ((-4.159304e+02 -1.085099e+03 4.489980e+02) (5.904205e-01 -1.277940e+00 -5.267878e-01))
0.13          	((-7.550653e+01 5.478863e+02 1.518505e+03) (1.993270e-02 6.253493e-01 -1.478297e+00)) ((-4.154949e+02 -1.079832e+03 4.476592e+02) (5.982259e-01 -1.291903e+00 -5.330344e-01))
0.131         	((-7.528042e+01 5.449239e+02 1.518861e+03) (2.006565e-02 6.338110e-01 -1.497720e+00)) ((-4.146650e+02 -1.079118e+03 4.490600e+02) (6.059271e-01 -1.305429e+00 -5.393538e-01))
0.132         	((-7.593908e+01 5.414021e+02 1.520743e+03) (2.022284e-02 6.422195e-01 -1.516907e+00)) ((-4.141043e+02 -1.080388e+03 4.525434e+02) (6.135546e-01 -1.318446e+00 -5.455555e-01))
0.133         	((-7.454306e+01 5.398446e+02 1.524258e+03) (2.037231e-02 6.505844e-01 -1.536004e+00)) ((-4.141168e+02 -1.074197e+03 4.514379e+02) (6.211302e-01 -1.331309e+00 -5.516499e-01))
0.134         	((-7.394680e+01 5.364150e+02 1.522036e+03) (2.051169e-02 6.589102e-01 -1.555087e+00)) ((-4.126643e+02 -1.072444e+03 4.524306e+02) (6.286940e-01 -1.344080e+00 -5.576459e-01))
0.135         	((-7.428021e+01 5.337003e+02 1.524236e+03) (2.068855e-02 6.672964e-01 -1.574079e+00)) ((-4.124416e+02 -1.073743e+03 4.541299e+02) (6.361818e-01 -1.356701e+00 -5.637097e-01))
0.136         	((-7.395102e+01 5.316342e+02 1.529243e+03) (2.088625e-02 6.757070e-01 -1.592809e+00)) ((-4.126811e+02 -1.071024e+03 4.549916e+02) (6.435494e-01 -1.368853e+00 -5.697697e-01))
0.137         	((-7.360889e+01 5.289359e+02 1.528186e+03) (2.110981e-02 6.841927e-01 -1.611323e+00)) ((-4.117117e+02 -1.070304e+03 4.554526e+02) (6.507950e-01 -1.380611e+00 -5.758899e-01))
0.138         	((-7.335213e+01 5.264129e+02 1.529573e+03) (2.136160e-02 6.927298e-01 -1.629559e+00)) ((-4.112218e+02 -1.069066e+03 4.563762e+02) (6.578925e-01 -1.391899e+00 -5.820477e-01))
0.139         	((-7.319398e+01 5.240915e+02 1.532121e+03) (2.164340e-02 7.012855e-01 -1.647502e+00)) ((-4.109716e+02 -1.067981e+03 4.574108e+02) (6.648407e-01 -1.402721e+00 -5.882014e-01))
0.14          	((-7.328098e+01 5.217312e+02 1.532345e+03) (2.196523e-02 7.098547e-01 -1.665154e+00)) ((-4.103089e+02 -1.068541e+03 4.581317e+02) (6.716422e-01 -1.413076e+00 -5.943549e-01))
0.141         	((-7.318371e+01 5.194021e+02 1.534834e+03) (2.230611e-02 7.183430e-01 -1.682580e+00)) ((-4.100488e+02 -1.067952e+03 4.591212e+02) (6.783495e-01 -1.423054e+00 -6.003783e-01))
0.142         	((-7.280221e+01 5.174127e+02 1.536798e+03) (2.266675e-02 7.267435e-01 -1.699850e+00)) ((-4.097854e+02 -1.066483e+03 4.592531e+02) (6.849995e-01 -1.432738e+00 -6.062583e-01))
0.143         	((-7.261752e+01 5.146852e+02 1.536936e+03) (2.304334e-02 7.351192e-01 -1.716902e+00)) ((-4.090033e+02 -1.066205e+03 4.602320e+02) (6.915439e-01 -1.442069e+00 -6.120743e-01))
0.144         	((-7.225772e+01 5.127790e+02 1.540296e+03) (2.345235e-02 7.435883e-01 -1.733720e+00)) ((-4.090149e+02 -1.064372e+03 4.605918e+02) (6.979335e-01 -1.451089e+00 -6.180232e-01))
0.145         	((-7.249511e+01 5.098484e+02 1.542644e+03) (2.383583e-02 7.521854e-01 -1.750278e+00)) ((-4.085862e+02 -1.065144e+03 4.628958e+02) (7.041475e-01 -1.459750e+00 -6.241824e-01))
0.146         	((-7.302632e+01 5.068926e+02 1.542739e+03) (2.423474e-02 7.609748e-01 -1.766498e+00)) ((-4.079197e+02 -1.067762e+03 4.649599e+02) (7.101527e-01 -1.467855e+00 -6.305823e-01))
0.147         	((-7.300748e+01 5.046064e+02 1.543540e+03) (2.465234e-02 7.699048e-01 -1.782186e+00)) ((-4.074454e+02 -1.067052e+03 4.654216e+02) (7.158565e-01 -1.475189e+00 -6.371547e-01))
0.148         	((-7.294865e+01 5.025942e+02 1.545710e+03) (2.515113e-02 7.789203e-01 -1.797241e+00)) ((-4.072944e+02 -1.066097e+03 4.659683e+02) (7.212243e-01 -1.481559e+00 -6.438063e-01))
0.149         	((-7.221853e+01 5.012146e+02 1.547367e+03) (2.567890e-02 7.878796e-01 -1.811585e+00)) ((-4.070291e+02 -1.061105e+03 4.646723e+02) (7.262692e-01 -1.486787e+00 -6.503058e-01))
0.15          	((-7.221300e+01 4.993175e+02 1.545918e+03) (2.620165e-02 7.967973e-01 -1.825314e+00)) ((-4.062872e+02 -1.060841e+03 4.641947e+02) (7.310155e-01 -1.491102e+00 -6.567303e-01))
0.151         	((-7.249045e+01 4.978564e+02 1.549359e+03) (2.668503e-02 8.055968e-01 -1.838388e+00)) ((-4.064959e+02 -1.059806e+03 4.644118e+02) (7.354510e-01 -1.494516e+00 -6.629911e-01))
0.152         	((-7.296392e+01 4.958195e+02 1.550710e+03) (2.717668e-02 8.141649e-01 -1.851018e+00)) ((-4.062356e+02 -1.060524e+03 4.654492e+02) (7.397159e-01 -1.497246e+00 -6.688894e-01))
0.153         	((-7.294548e+01 4.942728e+02 1.551714e+03) (2.764629e-02 8.225448e-01 -1.863335e+00)) ((-4.059683e+02 -1.059239e+03 4.650187e+02) (7.438557e-01 -1.499517e+00 -6.745540e-01))
0.154         	((-7.293280e+01 4.927095e+02 1.553845e+03) (2.808411e-02 8.307813e-01 -1.875244e+00)) ((-4.058867e+02 -1.057581e+03 4.649195e+02) (7.478163e-01 -1.501264e+00 -6.800158e-01))
0.155         	((-7.296965e+01 4.909706e+02 1.554517e+03) (2.847933e-02 8.389919e-01 -1.886635e+00)) ((-4.055383e+02 -1.056970e+03 4.650482e+02) (7.515162e-01 -1.502325e+00 -6.854496e-01))
0.156         	((-7.244407e+01 4.903406e+02 1.556498e+03) (2.884209e-02 8.472271e-01 -1.897507e+00)) ((-4.057596e+02 -1.053687e+03 4.632340e+02) (7.549384e-01 -1.502708e+00 -6.909338e-01))
0.157         	((-7.211393e+01 4.892929e+02 1.556866e+03) (2.910033e-02 8.556219e-01 -1.907409e+00)) ((-4.055285e+02 -1.051236e+03 4.615649e+02) (7.579032e-01 -1.501548e+00 -6.966829e-01))