# Forces      
# CofR        : (0.000000e+00 0.000000e+00 0.000000e+00)
# Time        forces(pressure viscous)	moments(pressure viscous)
0             	((2.678911e+01 -2.507848e-03 8.489980e-06) (6.518674e-01 -1.296967e-05 1.261900e-05)) ((9.701327e-05 -6.221085e-05 -4.238318e-07) (-3.082236e-07 4.639557e-07 1.084334e-06))
0.0001        	((2.635266e+01 -1.683628e-03 1.285780e-05) (6.060645e-01 -4.269581e-06 9.225638e-06)) ((-2.756810e-03 2.281344e-03 -3.251147e-07) (-4.459779e-07 4.561651e-07 1.074710e-06))
0.0002        	((2.640761e+01 1.193240e-03 3.253911e-06) (5.716285e-01 -3.851172e-07 1.224996e-05)) ((1.854930e-04 -9.296156e-05 -2.472172e-07) (-3.500246e-07 2.400567e-07 1.025188e-06))
0.0003        	((2.598054e+01 3.946918e-03 6.535151e-06) (5.492054e-01 7.409720e-07 1.166383e-05)) ((-3.668041e-04 4.982568e-04 -2.483472e-07) (-3.245624e-07 9.635985e-08 9.861005e-07))
0.0004        	((2.561709e+01 -5.484118e-04 4.187674e-06) (5.351355e-01 8.993891e-07 1.187285e-05)) ((-5.213039e-05 1.567672e-04 -2.102642e-07) (-2.935738e-07 -1.317003e-08 9.548619e-07))
0.0005        	((2.531062e+01 6.436537e-04 5.549102e-06) (5.248646e-01 1.340028e-06 1.142010e-05)) ((-1.027261e-04 1.345445e-04 -2.404128e-07) (-2.655300e-07 -7.291518e-08 9.600101e-07))
0.0006        	((2.500930e+01 -8.749367e-04 5.772349e-06) (5.168073e-01 1.918442e-06 1.099828e-05)) ((-8.066263e-06 9.008041e-05 -2.375655e-07) (-2.328963e-07 -1.103072e-07 9.412437e-07))
0.0007        	((2.473181e+01 -3.929349e-04 5.359314e-06) (5.096849e-01 2.652090e-06 1.066861e-05)) ((-4.002829e-05 1.001569e-04 -2.262588e-07) (-2.042941e-07 -1.271089e-07 9.483233e-07))
0.0008        	((2.446292e+01 -7.551683e-04 5.540092e-06) (5.038446e-01 3.129283e-06 1.034966e-05)) ((-1.112810e-05 9.131659e-05 -2.379126e-07) (-1.747243e-07 -1.453344e-07 9.289861e-07))
0.0009        	((2.420222e+01 -1.225593e-03 5.871504e-06) (4.985624e-01 3.991426e-06 1.003642e-05)) ((2.280475e-05 5.262079e-05 -2.214752e-07) (-1.433612e-07 -1.380638e-07 9.514037e-07))
0.001         	((2.395923e+01 -8.612649e-04 6.105913e-06) (4.942300e-01 4.287651e-06 9.690201e-06)) ((9.755301e-06 4.213305e-05 -2.344860e-07) (-1.072921e-07 -1.428534e-07 9.341340e-07))
0.0011        	((2.372497e+01 -4.043497e-04 6.045313e-06) (4.901270e-01 5.538296e-06 9.410062e-06)) ((-2.285460e-05 7.525427e-05 -2.338293e-07) (-8.573081e-08 -1.247188e-07 9.688735e-07))
0.0012        	((2.349457e+01 -4.693158e-04 5.983121e-06) (4.866956e-01 6.048290e-06 9.175158e-06)) ((-2.519314e-05 7.415735e-05 -2.480441e-07) (-5.985125e-08 -1.228492e-07 9.715092e-07))
0.0013        	((2.326957e+01 -4.557830e-04 5.914114e-06) (4.833040e-01 6.734987e-06 8.987025e-06)) ((-2.179906e-05 7.097854e-05 -2.370387e-07) (-3.639052e-08 -1.112507e-07 1.010988e-06))
0.0014        	((2.304670e+01 -1.033602e-03 6.292015e-06) (4.804478e-01 7.146775e-06 8.730928e-06)) ((1.567706e-05 4.505470e-05 -2.408862e-07) (-2.702621e-08 -9.710686e-08 1.011977e-06))
0.0015        	((2.283737e+01 -8.337990e-04 6.201004e-06) (4.775498e-01 8.137201e-06 8.560175e-06)) ((-4.522511e-06 6.399404e-05 -2.466146e-07) (-2.602238e-08 -9.033847e-08 1.051426e-06))
0.0016        	((2.263125e+01 -7.462203e-04 5.805772e-06) (4.751129e-01 9.001990e-06 8.491721e-06)) ((-1.831585e-06 5.526606e-05 -2.626972e-07) (-1.028355e-08 -1.008807e-07 1.075092e-06))
0.0017        	((2.242838e+01 -6.880777e-04 6.140548e-06) (4.725757e-01 9.692034e-06 8.323831e-06)) ((-1.666489e-06 5.727304e-05 -2.451857e-07) (6.592618e-09 -1.095859e-07 1.120927e-06))
0.0018        	((2.222986e+01 -8.320496e-04 6.224183e-06) (4.704315e-01 9.776229e-06 8.147266e-06)) ((6.423762e-06 5.103213e-05 -2.549519e-07) (8.492357e-09 -8.555828e-08 1.125632e-06))
0.0019        	((2.203473e+01 -9.230907e-04 6.172168e-06) (4.681518e-01 1.038986e-05 8.026733e-06)) ((1.387137e-05 4.557272e-05 -2.558411e-07) (-5.723224e-09 -7.943045e-08 1.194237e-06))
0.002         	((2.184524e+01 -9.856483e-04 6.075653e-06) (4.662229e-01 1.129045e-05 7.909789e-06)) ((1.635601e-05 4.097867e-05 -2.699996e-07) (-8.964244e-09 -6.576218e-08 1.192922e-06))
0.0021        	((2.165894e+01 -9.657109e-04 5.983543e-06) (4.641492e-01 1.179060e-05 7.860963e-06)) ((1.603452e-05 4.283904e-05 -2.558252e-07) (-1.304570e-08 -6.116833e-08 1.251982e-06))
0.0022        	((2.147427e+01 -1.141665e-03 5.792567e-06) (4.623945e-01 1.208140e-05 7.814162e-06)) ((2.992943e-05 3.026413e-05 -2.653325e-07) (6.355383e-09 -3.074273e-08 1.250913e-06))
0.0023        	((2.129908e+01 -1.077255e-03 5.539013e-06) (4.604842e-01 1.293022e-05 7.837212e-06)) ((2.092052e-05 3.723911e-05 -2.605080e-07) (3.029858e-09 -4.465779e-08 1.301642e-06))
0.0024        	((2.112412e+01 -1.049019e-03 5.454027e-06) (4.588734e-01 1.348532e-05 7.819056e-06)) ((2.356628e-05 3.267370e-05 -2.693872e-07) (-1.677920e-09 -1.723399e-08 1.301014e-06))
0.0025        	((2.095214e+01 -1.017172e-03 5.473154e-06) (4.571013e-01 1.395131e-05 7.786060e-06)) ((2.596672e-05 3.319661e-05 -2.502488e-07) (1.154023e-08 -8.238251e-09 1.347907e-06))
0.0026        	((2.078394e+01 -1.064444e-03 5.449868e-06) (4.556126e-01 1.373141e-05 7.750228e-06)) ((2.695829e-05 3.032126e-05 -2.616071e-07) (4.987403e-09 -2.398637e-08 1.357538e-06))
0.0027        	((2.061838e+01 -1.065923e-03 5.460358e-06) (4.539580e-01 1.432931e-05 7.702000e-06)) ((3.086546e-05 2.779533e-05 -2.510023e-07) (-1.035125e-09 1.254258e-08 1.403977e-06))
0.0028        	((2.045444e+01 -1.127341e-03 5.680383e-06) (4.525550e-01 1.495197e-05 7.612625e-06)) ((3.989278e-05 2.033994e-05 -2.670992e-07) (6.108397e-09 1.636974e-08 1.391343e-06))
0.0029        	((2.029791e+01 -1.175975e-03 5.383002e-06) (4.510047e-01 1.496906e-05 7.588261e-06)) ((3.571540e-05 2.078391e-05 -2.452791e-07) (-2.987932e-09 1.773912e-08 1.439518e-06))
0.003         	((2.014214e+01 -1.079428e-03 5.439600e-06) (4.496838e-01 1.508685e-05 7.511698e-06)) ((3.123637e-05 2.523898e-05 -2.615290e-07) (9.127620e-09 2.556801e-08 1.420173e-06))
0.0031        	((1.999073e+01 -1.205344e-03 5.547861e-06) (4.482145e-01 1.557984e-05 7.429086e-06)) ((4.354996e-05 1.402086e-05 -2.625157e-07) (-5.766678e-09 3.356137e-08 1.473974e-06))
0.0032        	((1.983938e+01 -1.101083e-03 5.539094e-06) (4.469553e-01 1.610041e-05 7.349459e-06)) ((3.619992e-05 1.913530e-05 -2.586445e-07) (4.876836e-09 4.093064e-08 1.462880e-06))
0.0033        	((1.969270e+01 -1.864352e-03 5.574309e-06) (4.455522e-01 1.635923e-05 7.283702e-06)) ((6.914048e-05 -1.802372e-05 -2.516515e-07) (-2.088817e-09 4.783007e-08 1.491173e-06))
0.0034        	((1.954581e+01 -1.737715e-03 5.139222e-06) (4.443468e-01 1.615205e-05 7.263751e-06)) ((7.256024e-05 -2.267638e-05 -2.512942e-07) (1.845199e-08 5.264523e-08 1.478334e-06))
0.0035        	((1.940507e+01 -2.028289e-03 5.999995e-06) (4.430055e-01 1.662899e-05 7.048960e-06)) ((8.974392e-05 -4.314552e-05 -2.455376e-07) (1.190022e-08 6.816485e-08 1.521933e-06))
0.0036        	((1.926743e+01 -1.522139e-03 5.244834e-06) (4.418454e-01 1.699544e-05 7.032890e-06)) ((4.060665e-05 1.355721e-05 -2.618200e-07) (1.128580e-08 9.762331e-08 1.521604e-06))
0.0037        	((1.911949e+01 -2.249163e-03 5.348952e-06) (4.405453e-01 1.741916e-05 6.948595e-06)) ((1.208024e-04 -7.646072e-05 -2.450111e-07) (1.770358e-08 9.762017e-08 1.538157e-06))
0.0038        	((1.899936e+01 -1.489532e-03 5.729102e-06) (4.394272e-01 1.709265e-05 6.755374e-06)) ((5.694254e-05 -4.805964e-06 -2.468038e-07) (2.669438e-08 9.406767e-08 1.522127e-06))
0.0039        	((1.886231e+01 -1.577598e-03 5.457807e-06) (4.381728e-01 1.753642e-05 6.682812e-06)) ((6.177770e-05 -9.989294e-06 -2.552741e-07) (2.768913e-08 1.098180e-07 1.548295e-06))
0.004         	((1.872641e+01 -1.516301e-03 5.288420e-06) (4.370857e-01 1.786833e-05 6.625951e-06)) ((5.743363e-05 -3.149305e-06 -2.607757e-07) (2.546497e-08 1.318629e-07 1.560191e-06))
0.0041        	((1.860590e+01 -1.857555e-03 5.830033e-06) (4.358677e-01 1.831700e-05 6.432734e-06)) ((6.635597e-05 -1.966640e-05 -2.464983e-07) (2.716080e-08 1.254608e-07 1.570363e-06))
0.0042        	((1.847028e+01 -1.380720e-03 5.225008e-06) (4.348102e-01 1.783063e-05 6.402793e-06)) ((5.239267e-05 6.359993e-06 -2.537766e-07) (3.200014e-08 1.275806e-07 1.543074e-06))
0.0043        	((1.835208e+01 -1.399282e-03 5.611593e-06) (4.336236e-01 1.824160e-05 6.237270e-06)) ((5.339631e-05 1.148573e-07 -2.538108e-07) (2.902728e-08 1.542172e-07 1.566957e-06))
0.0044        	((1.822782e+01 -1.691384e-03 5.493662e-06) (4.325915e-01 1.857725e-05 6.163859e-06)) ((6.776368e-05 -1.626872e-05 -2.572797e-07) (2.287993e-08 1.600641e-07 1.568458e-06))
0.0045        	((1.810785e+01 -1.591632e-03 4.910547e-06) (4.314357e-01 1.881884e-05 6.205614e-06)) ((5.650188e-05 -4.796727e-06 -2.540773e-07) (3.467039e-08 1.817439e-07 1.584048e-06))
0.0046        	((1.799552e+01 -1.611406e-03 5.563940e-06) (4.304230e-01 1.830053e-05 6.058117e-06)) ((5.683740e-05 -8.741103e-06 -2.510550e-07) (3.934219e-08 1.680495e-07 1.552227e-06))
0.0047        	((1.787050e+01 -1.508715e-03 4.933520e-06) (4.292993e-01 1.868583e-05 6.058478e-06)) ((6.217420e-05 -8.560704e-06 -2.444204e-07) (3.443422e-08 1.832472e-07 1.572011e-06))
0.0048        	((1.776696e+01 -1.533622e-03 5.582423e-06) (4.283047e-01 1.888556e-05 5.882859e-06)) ((5.495746e-05 -6.368626e-06 -2.651035e-07) (2.678311e-08 2.120351e-07 1.573207e-06))
0.0049        	((1.765102e+01 -1.563420e-03 5.234185e-06) (4.272072e-01 1.898673e-05 5.846870e-06)) ((5.521426e-05 -1.532388e-06 -2.540220e-07) (2.931888e-08 1.981484e-07 1.578502e-06))
0.005         	((1.753926e+01 -1.292762e-03 4.886622e-06) (4.262314e-01 1.868558e-05 5.851276e-06)) ((4.777627e-05 3.101285e-06 -2.452637e-07) (4.160020e-08 1.944215e-07 1.546149e-06))
0.0051        	((1.743546e+01 -1.576331e-03 5.547717e-06) (4.251587e-01 1.875249e-05 5.684820e-06)) ((5.852193e-05 -1.211892e-05 -2.591644e-07) (4.425016e-08 2.012122e-07 1.562113e-06))
0.0052        	((1.732343e+01 -1.345131e-03 4.837342e-06) (4.241982e-01 1.903938e-05 5.689983e-06)) ((4.839534e-05 5.100393e-06 -2.618138e-07) (3.803775e-08 2.197932e-07 1.564383e-06))
0.0053        	((1.722440e+01 -1.328964e-03 5.420043e-06) (4.231503e-01 1.922958e-05 5.547988e-06)) ((5.116928e-05 -1.240179e-06 -2.584547e-07) (3.095236e-08 2.145457e-07 1.566845e-06))
0.0054        	((1.711826e+01 -1.238800e-03 5.147415e-06) (4.222067e-01 1.865712e-05 5.478575e-06)) ((5.092719e-05 2.671580e-06 -2.496101e-07) (3.735747e-08 2.133511e-07 1.546096e-06))
0.0055        	((1.701584e+01 -1.430927e-03 4.806308e-06) (4.211801e-01 1.877990e-05 5.492134e-06)) ((4.888874e-05 -1.188368e-06 -2.617404e-07) (5.050334e-08 2.196570e-07 1.551080e-06))
0.0056        	((1.691847e+01 -1.630658e-03 5.288085e-06) (4.202514e-01 1.893017e-05 5.385116e-06)) ((5.916226e-05 -1.825013e-05 -2.488985e-07) (5.427543e-08 2.215836e-07 1.553266e-06))
0.0057        	((1.681997e+01 -1.398485e-03 4.737113e-06) (4.192468e-01 1.888029e-05 5.406718e-06)) ((4.667832e-05 8.357083e-08 -2.638596e-07) (3.829055e-08 2.246136e-07 1.563266e-06))
0.0058        	((1.672451e+01 -1.355521e-03 5.266861e-06) (4.183341e-01 1.824696e-05 5.290146e-06)) ((5.319270e-05 -9.032444e-06 -2.519233e-07) (4.459845e-08 2.200087e-07 1.537773e-06))
0.0059        	((1.662600e+01 -1.342816e-03 4.666393e-06) (4.173481e-01 1.847793e-05 5.311580e-06)) ((4.577078e-05 9.331470e-07 -2.599456e-07) (5.556199e-08 2.218600e-07 1.537609e-06))
0.006         	((1.653591e+01 -1.365778e-03 4.923770e-06) (4.164471e-01 1.868596e-05 5.253575e-06)) ((5.212115e-05 -8.708544e-06 -2.552102e-07) (5.875498e-08 2.305005e-07 1.538664e-06))
0.0061        	((1.644123e+01 -1.273059e-03 4.688342e-06) (4.154782e-01 1.860966e-05 5.265995e-06)) ((4.402510e-05 2.309015e-06 -2.675816e-07) (5.017374e-08 2.243359e-07 1.546069e-06))
0.0062        	((1.635060e+01 -1.313212e-03 4.951744e-06) (4.145944e-01 1.804929e-05 5.190784e-06)) ((5.035416e-05 -6.567382e-06 -2.461521e-07) (5.058840e-08 2.185642e-07 1.529832e-06))
0.0063        	((1.626212e+01 -1.275237e-03 4.871950e-06) (4.136451e-01 1.813483e-05 5.129343e-06)) ((5.023724e-05 -2.301967e-06 -2.626478e-07) (6.234915e-08 2.242747e-07 1.528781e-06))
0.0064        	((1.617481e+01 -1.442721e-03 4.976956e-06) (4.127731e-01 1.832541e-05 5.040857e-06)) ((5.125763e-05 -1.012592e-05 -2.566791e-07) (6.906508e-08 2.413925e-07 1.527335e-06))
0.0065        	((1.608498e+01 -1.116951e-03 4.667916e-06) (4.118426e-01 1.823604e-05 5.033451e-06)) ((4.454918e-05 3.747045e-06 -2.639186e-07) (5.872656e-08 2.363374e-07 1.539703e-06))
0.0066        	((1.600206e+01 -1.327372e-03 5.101830e-06) (4.109855e-01 1.775871e-05 4.919332e-06)) ((5.256020e-05 -1.033374e-05 -2.491388e-07) (6.177156e-08 2.278365e-07 1.511996e-06))
0.0067        	((1.591601e+01 -1.339725e-03 4.569919e-06) (4.100719e-01 1.748589e-05 4.931838e-06)) ((4.814651e-05 -4.123354e-06 -2.583619e-07) (6.833388e-08 2.265854e-07 1.520595e-06))
0.0068        	((1.583658e+01 -1.330435e-03 5.122925e-06) (4.092271e-01 1.785306e-05 4.785002e-06)) ((4.904133e-05 -8.370293e-06 -2.515753e-07) (8.024437e-08 2.430523e-07 1.515059e-06))
0.0069        	((1.575248e+01 -1.303465e-03 4.822872e-06) (4.083299e-01 1.755044e-05 4.754309e-06)) ((4.785547e-05 -3.920383e-06 -2.586020e-07) (7.068501e-08 2.377395e-07 1.530047e-06))
0.007         	((1.567216e+01 -1.268002e-03 4.763757e-06) (4.075005e-01 1.710461e-05 4.709016e-06)) ((4.786657e-05 -7.882535e-07 -2.516883e-07) (7.544320e-08 2.294169e-07 1.504340e-06))
0.0071        	((1.559305e+01 -1.211476e-03 4.798901e-06) (4.066213e-01 1.675817e-05 4.655022e-06)) ((4.804093e-05 -3.665462e-06 -2.533255e-07) (8.309601e-08 2.316742e-07 1.516489e-06))
0.0072        	((1.551214e+01 -1.170940e-03 4.588519e-06) (4.058052e-01 1.713844e-05 4.647877e-06)) ((4.516993e-05 -1.924315e-06 -2.564728e-07) (9.332639e-08 2.479729e-07 1.505288e-06))
0.0073        	((1.543876e+01 -1.149810e-03 4.947749e-06) (4.049400e-01 1.671351e-05 4.557198e-06)) ((4.542132e-05 -1.653455e-06 -2.597336e-07) (8.506848e-08 2.397334e-07 1.525572e-06))
0.0074        	((1.536171e+01 -1.203131e-03 4.819609e-06) (4.041394e-01 1.639284e-05 4.493393e-06)) ((4.555878e-05 -3.983884e-06 -2.463330e-07) (8.681839e-08 2.280436e-07 1.494483e-06))
0.0075        	((1.528516e+01 -1.215879e-03 4.701448e-06) (4.032909e-01 1.587433e-05 4.446161e-06)) ((4.240407e-05 -1.463122e-06 -2.520372e-07) (8.992557e-08 2.355461e-07 1.504941e-06))
0.0076        	((1.521248e+01 -1.014870e-03 4.916274e-06) (4.025033e-01 1.621129e-05 4.332711e-06)) ((4.473636e-05 1.139211e-06 -2.579099e-07) (1.062195e-07 2.447675e-07 1.487503e-06))
0.0077        	((1.514016e+01 -1.258709e-03 4.838507e-06) (4.016698e-01 1.571317e-05 4.288353e-06)) ((4.501225e-05 -4.052143e-06 -2.505562e-07) (9.818781e-08 2.332969e-07 1.503001e-06))
0.0078        	((1.506752e+01 -1.162673e-03 4.632660e-06) (4.008969e-01 1.541297e-05 4.272572e-06)) ((4.346238e-05 -2.408219e-06 -2.439508e-07) (9.604563e-08 2.275443e-07 1.472667e-06))
0.0079        	((1.499478e+01 -1.133462e-03 4.469814e-06) (4.000790e-01 1.485260e-05 4.280378e-06)) ((4.707724e-05 -3.779800e-06 -2.544095e-07) (9.777800e-08 2.352607e-07 1.488046e-06))
0.008         	((1.492781e+01 -1.023225e-03 4.814308e-06) (3.993201e-01 1.521509e-05 4.186776e-06)) ((4.186500e-05 -1.014451e-06 -2.492878e-07) (1.166221e-07 2.441901e-07 1.472786e-06))
0.0081        	((1.485783e+01 -1.085082e-03 4.684857e-06) (3.985160e-01 1.481075e-05 4.167380e-06)) ((4.345231e-05 -1.320870e-06 -2.554059e-07) (1.104799e-07 2.355802e-07 1.492059e-06))
0.0082        	((1.478922e+01 -1.291410e-03 4.583182e-06) (3.977704e-01 1.457072e-05 4.147269e-06)) ((4.598852e-05 -8.072356e-06 -2.440194e-07) (1.145275e-07 2.250534e-07 1.463454e-06))
0.0083        	((1.472216e+01 -1.087924e-03 4.646144e-06) (3.969818e-01 1.402657e-05 4.103672e-06)) ((4.680461e-05 -5.817058e-06 -2.483430e-07) (1.120954e-07 2.296732e-07 1.478230e-06))
0.0084        	((1.465617e+01 -1.327963e-03 4.661697e-06) (3.962491e-01 1.437936e-05 4.043076e-06)) ((4.612184e-05 -1.154822e-05 -2.477172e-07) (1.262186e-07 2.379331e-07 1.463273e-06))
0.0085        	((1.458968e+01 -1.170902e-03 4.623920e-06) (3.954726e-01 1.393237e-05 4.020424e-06)) ((4.466697e-05 -7.929110e-06 -2.573437e-07) (1.205503e-07 2.344271e-07 1.484251e-06))
0.0086        	((1.452693e+01 -1.206604e-03 4.485490e-06) (3.947538e-01 1.382413e-05 4.015014e-06)) ((4.706335e-05 -1.101760e-05 -2.385771e-07) (1.263368e-07 2.241029e-07 1.457157e-06))
0.0087        	((1.446138e+01 -1.158907e-03 4.493487e-06) (3.939924e-01 1.327805e-05 3.994231e-06)) ((4.646891e-05 -8.138642e-06 -2.492587e-07) (1.195709e-07 2.335887e-07 1.474651e-06))
0.0088        	((1.440139e+01 -1.278136e-03 4.775769e-06) (3.932864e-01 1.354047e-05 3.899555e-06)) ((4.900342e-05 -1.628056e-05 -2.516415e-07) (1.351618e-07 2.371270e-07 1.460709e-06))
0.0089        	((1.433717e+01 -1.099750e-03 4.489814e-06) (3.925382e-01 1.311976e-05 3.897184e-06)) ((3.766861e-05 -1.937307e-06 -2.495070e-07) (1.297156e-07 2.351252e-07 1.479807e-06))
0.009         	((1.427805e+01 -1.183896e-03 4.766994e-06) (3.918458e-01 1.302681e-05 3.805885e-06)) ((4.442319e-05 -8.976936e-06 -2.408638e-07) (1.352463e-07 2.266315e-07 1.453362e-06))
0.0091        	((1.421615e+01 -1.114116e-03 4.540604e-06) (3.911119e-01 1.251305e-05 3.784375e-06)) ((4.046955e-05 -3.312575e-06 -2.527310e-07) (1.314598e-07 2.307651e-07 1.473128e-06))
0.0092        	((1.415495e+01 -1.059545e-03 4.359884e-06) (3.904321e-01 1.285996e-05 3.782597e-06)) ((4.168068e-05 -3.901064e-06 -2.447389e-07) (1.420836e-07 2.305765e-07 1.456266e-06))
0.0093        	((1.409671e+01 -1.370781e-03 4.826569e-06) (3.897101e-01 1.245328e-05 3.700818e-06)) ((5.139044e-05 -2.149668e-05 -2.481238e-07) (1.354608e-07 2.304762e-07 1.477654e-06))
0.0094        	((1.404062e+01 -8.753338e-04 4.520089e-06) (3.890428e-01 1.229963e-05 3.681530e-06)) ((3.290913e-05 9.349590e-06 -2.460056e-07) (1.393023e-07 2.148418e-07 1.452197e-06))
0.0095        	((1.398385e+01 -9.755085e-04 4.372900e-06) (3.883356e-01 1.177107e-05 3.692198e-06)) ((3.445601e-05 6.180409e-06 -2.455283e-07) (1.313802e-07 2.195151e-07 1.469326e-06))
0.0096        	((1.392579e+01 -1.048164e-03 4.504673e-06) (3.876802e-01 1.210699e-05 3.651665e-06)) ((3.896797e-05 -2.384577e-06 -2.464337e-07) (1.439494e-07 2.232721e-07 1.451788e-06))
0.0097        	((1.386956e+01 -1.029052e-03 4.539047e-06) (3.869839e-01 1.164001e-05 3.614393e-06)) ((4.092317e-05 -2.975874e-06 -2.541431e-07) (1.411742e-07 2.231322e-07 1.470578e-06))
0.0098        	((1.381457e+01 -1.092975e-03 4.529266e-06) (3.863414e-01 1.155844e-05 3.562340e-06)) ((3.977886e-05 -6.843303e-06 -2.356398e-07) (1.459174e-07 2.164741e-07 1.441921e-06))
0.0099        	((1.375835e+01 -1.059568e-03 4.389393e-06) (3.856579e-01 1.101759e-05 3.550653e-06)) ((3.734629e-05 -4.210869e-06 -2.466202e-07) (1.381952e-07 2.214419e-07 1.454190e-06))
0.01          	((1.370630e+01 -9.836862e-04 4.577096e-06) (3.850271e-01 1.118561e-05 3.484498e-06)) ((3.916475e-05 -2.654794e-06 -2.497409e-07) (1.481982e-07 2.131345e-07 1.439060e-06))
0.0101        	((1.365193e+01 -1.231709e-03 4.501182e-06) (3.843554e-01 1.078410e-05 3.456470e-06)) ((4.103254e-05 -1.010658e-05 -2.464104e-07) (1.455674e-07 2.121617e-07 1.456068e-06))
0.0102        	((1.359832e+01 -1.054886e-03 4.329708e-06) (3.837362e-01 1.072309e-05 3.451851e-06)) ((3.851753e-05 -6.792501e-06 -2.360201e-07) (1.495320e-07 2.028202e-07 1.429261e-06))
0.0103        	((1.354859e+01 -9.025795e-04 4.543967e-06) (3.830771e-01 1.022803e-05 3.395627e-06)) ((3.735924e-05 5.840329e-07 -2.516270e-07) (1.431037e-07 2.053153e-07 1.442709e-06))
0.0104        	((1.349586e+01 -1.143644e-03 4.476767e-06) (3.824698e-01 1.033820e-05 3.356295e-06)) ((4.022864e-05 -8.780766e-06 -2.390552e-07) (1.557621e-07 2.039170e-07 1.426307e-06))
0.0105        	((1.344452e+01 -1.043175e-03 4.294237e-06) (3.818218e-01 9.951295e-06 3.364308e-06)) ((3.679889e-05 -4.307755e-06 -2.468010e-07) (1.513062e-07 2.079036e-07 1.442080e-06))
0.0106        	((1.339631e+01 -1.117189e-03 4.518181e-06) (3.812267e-01 9.746358e-06 3.307985e-06)) ((4.042877e-05 -9.982212e-06 -2.373695e-07) (1.550297e-07 1.954790e-07 1.417837e-06))
0.0107        	((1.334432e+01 -1.078273e-03 4.332753e-06) (3.805917e-01 9.290041e-06 3.299138e-06)) ((3.915422e-05 -5.701096e-06 -2.420524e-07) (1.471281e-07 1.976813e-07 1.430931e-06))
0.0108        	((1.329692e+01 -1.098309e-03 4.472217e-06) (3.800071e-01 9.328824e-06 3.245492e-06)) ((4.090768e-05 -1.238301e-05 -2.402392e-07) (1.542121e-07 1.958178e-07 1.418246e-06))
0.0109        	((1.324720e+01 -1.122847e-03 4.228207e-06) (3.793822e-01 8.961632e-06 3.262993e-06)) ((3.846559e-05 -8.678714e-06 -2.482708e-07) (1.519468e-07 1.974861e-07 1.432983e-06))
0.011         	((1.320139e+01 -9.803050e-04 4.471188e-06) (3.788095e-01 8.803444e-06 3.205144e-06)) ((3.790569e-05 -5.383452e-06 -2.303852e-07) (1.592308e-07 1.845678e-07 1.408098e-06))
0.0111        	((1.315230e+01 -1.252579e-03 4.371675e-06) (3.781972e-01 8.433186e-06 3.189202e-06)) ((3.947888e-05 -1.297933e-05 -2.408705e-07) (1.507228e-07 1.849237e-07 1.417581e-06))
0.0112        	((1.310494e+01 -1.058528e-03 4.205853e-06) (3.776353e-01 8.364214e-06 3.184972e-06)) ((3.982112e-05 -1.113946e-05 -2.389935e-07) (1.602937e-07 1.864604e-07 1.402037e-06))
0.0113        	((1.306107e+01 -1.073201e-03 4.313933e-06) (3.770337e-01 8.059259e-06 3.172979e-06)) ((3.840495e-05 -9.748758e-06 -2.405491e-07) (1.576548e-07 1.920037e-07 1.412914e-06))
0.0114        	((1.301333e+01 -1.189355e-03 4.355566e-06) (3.764831e-01 7.815042e-06 3.133034e-06)) ((3.881055e-05 -1.302421e-05 -2.289856e-07) (1.677830e-07 1.903790e-07 1.392293e-06))
0.0115        	((1.296833e+01 -1.041094e-03 4.315685e-06) (3.758930e-01 7.425546e-06 3.112614e-06)) ((3.725740e-05 -5.220857e-06 -2.445058e-07) (1.587022e-07 1.891731e-07 1.397759e-06))
0.0116        	((1.292529e+01 -1.005294e-03 4.445426e-06) (3.753535e-01 7.442724e-06 3.042677e-06)) ((3.644879e-05 -6.171286e-06 -2.293724e-07) (1.708540e-07 1.939105e-07 1.382627e-06))
0.0117        	((1.287944e+01 -1.195286e-03 4.316564e-06) (3.747729e-01 7.117988e-06 3.034721e-06)) ((3.777073e-05 -1.306878e-05 -2.396950e-07) (1.640914e-07 1.963005e-07 1.392678e-06))
0.0118        	((1.283558e+01 -1.052149e-03 4.180132e-06) (3.742424e-01 6.734804e-06 3.034309e-06)) ((3.809424e-05 -1.027289e-05 -2.298447e-07) (1.710427e-07 1.882212e-07 1.375663e-06))
0.0119        	((1.279450e+01 -1.049594e-03 4.253705e-06) (3.736726e-01 6.338448e-06 3.024056e-06)) ((3.676977e-05 -8.976875e-06 -2.345716e-07) (1.609809e-07 1.866025e-07 1.381978e-06))
0.012         	((1.274975e+01 -1.130478e-03 4.287930e-06) (3.731528e-01 6.406267e-06 2.999008e-06)) ((3.700930e-05 -1.205508e-05 -2.306903e-07) (1.752954e-07 1.906701e-07 1.369651e-06))
0.0121        	((1.270800e+01 -1.081942e-03 4.165768e-06) (3.725916e-01 6.116439e-06 3.004628e-06)) ((3.675166e-05 -1.083198e-05 -2.393126e-07) (1.702259e-07 1.859976e-07 1.375689e-06))
0.0122        	((1.266737e+01 -1.065721e-03 4.220281e-06) (3.720822e-01 5.971037e-06 2.996824e-06)) ((3.610922e-05 -1.128462e-05 -2.213131e-07) (1.777523e-07 1.649489e-07 1.352656e-06))
0.0123        	((1.262472e+01 -1.143205e-03 4.257477e-06) (3.715311e-01 5.551003e-06 2.981847e-06)) ((3.634773e-05 -1.154522e-05 -2.344808e-07) (1.658377e-07 1.584010e-07 1.360689e-06))
0.0124        	((1.258381e+01 -1.090683e-03 4.236596e-06) (3.710302e-01 5.423868e-06 2.955089e-06)) ((3.824386e-05 -1.285441e-05 -2.311729e-07) (1.771146e-07 1.627378e-07 1.348912e-06))
0.0125        	((1.254390e+01 -1.138106e-03 4.357935e-06) (3.704881e-01 5.092830e-06 2.910665e-06)) ((3.631172e-05 -1.205836e-05 -2.291869e-07) (1.727714e-07 1.659053e-07 1.357374e-06))
0.0126        	((1.250460e+01 -1.042251e-03 4.292630e-06) (3.699973e-01 4.940320e-06 2.871340e-06)) ((3.415516e-05 -7.575582e-06 -2.229445e-07) (1.795318e-07 1.525546e-07 1.337777e-06))
0.0127        	((1.246462e+01 -1.149889e-03 4.345487e-06) (3.694656e-01 4.543872e-06 2.840634e-06)) ((3.742140e-05 -1.469933e-05 -2.334033e-07) (1.698796e-07 1.496038e-07 1.344430e-06))
0.0128        	((1.242564e+01 -9.880496e-04 4.029426e-06) (3.689836e-01 4.562460e-06 2.861272e-06)) ((3.016421e-05 -4.153416e-06 -2.215521e-07) (1.857374e-07 1.517846e-07 1.327651e-06))
0.0129        	((1.238770e+01 -9.942890e-04 4.337554e-06) (3.684600e-01 4.249086e-06 2.824950e-06)) ((3.439804e-05 -7.892338e-06 -2.312079e-07) (1.830978e-07 1.512933e-07 1.338609e-06))
0.013         	((1.234766e+01 -1.030816e-03 4.097015e-06) (3.679862e-01 4.051630e-06 2.828876e-06)) ((3.172436e-05 -7.852110e-06 -2.220678e-07) (1.940081e-07 1.399071e-07 1.318040e-06))
0.0131        	((1.231213e+01 -9.836803e-04 4.350132e-06) (3.674719e-01 3.729650e-06 2.779864e-06)) ((3.340760e-05 -5.614724e-06 -2.264305e-07) (1.873411e-07 1.428220e-07 1.325088e-06))
0.0132        	((1.227299e+01 -1.136176e-03 4.165092e-06) (3.670063e-01 3.768540e-06 2.767362e-06)) ((3.413311e-05 -1.332462e-05 -2.201528e-07) (1.976684e-07 1.400972e-07 1.308472e-06))
0.0133        	((1.223580e+01 -1.015379e-03 4.195851e-06) (3.664998e-01 3.441965e-06 2.756908e-06)) ((3.367354e-05 -7.732390e-06 -2.302325e-07) (1.908953e-07 1.436943e-07 1.315264e-06))
0.0134        	((1.220075e+01 -1.031570e-03 4.324867e-06) (3.660425e-01 3.328157e-06 2.702285e-06)) ((3.353167e-05 -9.029810e-06 -2.128744e-07) (1.984565e-07 1.298447e-07 1.292614e-06))
0.0135        	((1.216255e+01 -1.054796e-03 4.196654e-06) (3.655457e-01 2.978333e-06 2.693123e-06)) ((3.303024e-05 -7.364019e-06 -2.262671e-07) (1.930991e-07 1.270438e-07 1.302098e-06))
0.0136        	((1.212874e+01 -1.043000e-03 4.300400e-06) (3.650974e-01 2.938003e-06 2.643466e-06)) ((3.429103e-05 -1.123421e-05 -2.201335e-07) (2.067833e-07 1.249859e-07 1.286775e-06))
0.0137        	((1.209100e+01 -1.020354e-03 4.070249e-06) (3.646090e-01 2.645401e-06 2.650196e-06)) ((3.154975e-05 -5.700941e-06 -2.218509e-07) (1.995348e-07 1.338272e-07 1.295524e-06))
0.0138        	((1.205849e+01 -1.023744e-03 4.342149e-06) (3.641694e-01 2.662835e-06 2.597451e-06)) ((3.392609e-05 -9.761638e-06 -2.129655e-07) (2.045811e-07 1.182896e-07 1.274331e-06))
0.0139        	((1.202192e+01 -9.624856e-04 4.166497e-06) (3.636917e-01 2.361402e-06 2.589328e-06)) ((2.955829e-05 -1.897365e-06 -2.250509e-07) (1.956103e-07 1.158170e-07 1.282042e-06))
0.014         	((1.198823e+01 -1.072819e-03 4.235590e-06) (3.632614e-01 2.316725e-06 2.553278e-06)) ((3.438176e-05 -1.392083e-05 -2.125465e-07) (2.113832e-07 1.213533e-07 1.267382e-06))
0.0141        	((1.195366e+01 -1.022392e-03 4.007457e-06) (3.627921e-01 1.961974e-06 2.580048e-06)) ((3.002629e-05 -7.360676e-06 -2.230323e-07) (2.082298e-07 1.271920e-07 1.277721e-06))
0.0142        	((1.192128e+01 -1.000379e-03 4.262442e-06) (3.623700e-01 1.913430e-06 2.545185e-06)) ((3.189517e-05 -8.453764e-06 -2.141099e-07) (2.152051e-07 1.144435e-07 1.255464e-06))
0.0143        	((1.188631e+01 -1.039725e-03 4.102102e-06) (3.619099e-01 1.643545e-06 2.543722e-06)) ((3.130697e-05 -8.707535e-06 -2.169821e-07) (2.067101e-07 1.127775e-07 1.262465e-06))
0.0144        	((1.185460e+01 -1.088243e-03 4.228498e-06) (3.614965e-01 1.616285e-06 2.515320e-06)) ((3.465501e-05 -1.580596e-05 -2.124713e-07) (2.155947e-07 1.123196e-07 1.248693e-06))
0.0145        	((1.182075e+01 -1.032664e-03 3.921785e-06) (3.610440e-01 1.315059e-06 2.552712e-06)) ((2.913956e-05 -8.777162e-06 -2.209642e-07) (2.091350e-07 1.150711e-07 1.258382e-06))
0.0146        	((1.179040e+01 -1.003970e-03 4.254215e-06) (3.606371e-01 1.333671e-06 2.509386e-06)) ((3.193443e-05 -9.664041e-06 -2.081791e-07) (2.173534e-07 1.062439e-07 1.238911e-06))
0.0147        	((1.175637e+01 -1.048117e-03 4.090582e-06) (3.601928e-01 1.049837e-06 2.509429e-06)) ((3.062302e-05 -9.480887e-06 -2.190562e-07) (2.124881e-07 1.073033e-07 1.247152e-06))
0.0148        	((1.172591e+01 -1.053534e-03 4.190900e-06) (3.597934e-01 8.954579e-07 2.486575e-06)) ((3.409145e-05 -1.421555e-05 -2.133580e-07) (2.239981e-07 1.040066e-07 1.231487e-06))
0.0149        	((1.169444e+01 -9.844654e-04 3.967511e-06) (3.593558e-01 5.614582e-07 2.505472e-06)) ((2.678562e-05 -4.625904e-06 -2.153859e-07) (2.187306e-07 1.092362e-07 1.240347e-06))
0.015         	((1.166353e+01 -1.036164e-03 4.289114e-06) (3.589628e-01 5.883446e-07 2.459461e-06)) ((3.318663e-05 -1.296640e-05 -2.077750e-07) (2.229784e-07 9.893315e-08 1.221592e-06))
0.0151        	((1.163293e+01 -9.967834e-04 3.947633e-06) (3.585329e-01 3.029396e-07 2.483351e-06)) ((2.663254e-05 -5.178751e-06 -2.196500e-07) (2.191000e-07 9.838742e-08 1.229520e-06))
0.0152        	((1.160255e+01 -1.040415e-03 4.272615e-06) (3.581475e-01 2.539607e-07 2.422899e-06)) ((3.306413e-05 -1.352330e-05 -2.057009e-07) (2.330337e-07 1.048769e-07 1.211854e-06))
0.0153        	((1.157241e+01 -9.964667e-04 3.927613e-06) (3.577254e-01 -9.509111e-08 2.449238e-06)) ((2.632589e-05 -5.311918e-06 -2.152208e-07) (2.285874e-07 1.095063e-07 1.223251e-06))
0.0154        	((1.154352e+01 -1.010190e-03 4.225487e-06) (3.573468e-01 -2.096715e-08 2.413026e-06)) ((3.077172e-05 -1.081329e-05 -2.072477e-07) (2.332763e-07 9.776320e-08 1.199875e-06))
0.0155        	((1.151280e+01 -9.891303e-04 3.910073e-06) (3.569325e-01 -3.088845e-07 2.440878e-06)) ((2.720277e-05 -6.986949e-06 -2.115381e-07) (2.269646e-07 8.980224e-08 1.214873e-06))
0.0156        	((1.148469e+01 -9.628658e-04 4.213751e-06) (3.565611e-01 -1.027950e-07 2.393862e-06)) ((3.001107e-05 -8.679928e-06 -2.034644e-07) (2.344499e-07 9.604779e-08 1.191841e-06))
0.0157        	((1.145521e+01 -1.000773e-03 3.956738e-06) (3.561536e-01 -4.384366e-07 2.414704e-06)) ((2.627724e-05 -6.661840e-06 -2.136711e-07) (2.296946e-07 9.694044e-08 1.207670e-06))
0.0158        	((1.142749e+01 -1.011871e-03 4.201205e-06) (3.557884e-01 -2.773132e-07 2.375843e-06)) ((2.923664e-05 -9.541010e-06 -2.007546e-07) (2.375732e-07 8.974550e-08 1.191141e-06))
0.0159        	((1.139810e+01 -9.784162e-04 3.913301e-06) (3.553876e-01 -3.711887e-07 2.393581e-06)) ((2.662680e-05 -7.083817e-06 -2.090591e-07) (2.335454e-07 9.019044e-08 1.196289e-06))