# Forces      
# CofR        : (0.000000e+00 0.000000e+00 0.000000e+00)
# Time        forces(pressure viscous)	moments(pressure viscous)
0             	((2.675663e+01 -2.543681e-03 8.506275e-06) (6.530490e-01 -1.146647e-05 1.256884e-05)) ((9.722914e-05 -6.289372e-05 -4.242568e-07) (-3.052043e-07 4.465774e-07 1.104398e-06))
0.0001        	((2.632764e+01 -2.161111e-03 1.291541e-05) (6.072212e-01 -2.975860e-06 9.173229e-06)) ((-2.765078e-03 2.299949e-03 -3.246057e-07) (-4.427806e-07 4.379136e-07 1.093413e-06))
0.0002        	((2.637958e+01 1.366591e-03 3.270981e-06) (5.727395e-01 8.346947e-07 1.222359e-05)) ((1.874427e-04 -9.811973e-05 -2.472650e-07) (-3.469195e-07 2.211176e-07 1.042544e-06))
0.0003        	((2.595388e+01 3.884025e-03 6.570149e-06) (5.502781e-01 1.919659e-06 1.163799e-05)) ((-3.625227e-04 4.943787e-04 -2.480302e-07) (-3.213401e-07 7.821345e-08 1.002688e-06))
0.0004        	((2.559525e+01 -9.754718e-04 5.573746e-06) (5.361801e-01 2.002294e-06 1.153361e-05)) ((-1.671943e-06 8.759755e-05 -2.063573e-07) (-2.864121e-07 -3.500403e-08 9.711620e-07))
0.0005        	((2.528788e+01 9.586732e-04 6.720546e-06) (5.258896e-01 2.433884e-06 1.095989e-05)) ((-9.149644e-05 1.354001e-04 -2.443465e-07) (-2.577029e-07 -9.093875e-08 9.760337e-07))
0.0006        	((2.499901e+01 9.325830e-04 6.992569e-06) (5.178148e-01 3.005506e-06 1.041779e-05)) ((-9.770251e-05 1.574840e-04 -2.565052e-07) (-2.258646e-07 -1.283086e-07 9.575424e-07))
0.0007        	((2.470692e+01 -3.263952e-04 6.364528e-06) (5.106778e-01 3.641620e-06 1.015949e-05)) ((-2.253880e-05 9.354845e-05 -2.254911e-07) (-1.932857e-07 -1.467239e-07 9.650838e-07))
0.0008        	((2.444443e+01 -3.329910e-04 6.817431e-06) (5.048246e-01 4.103050e-06 9.804791e-06)) ((-1.631187e-05 7.014041e-05 -2.415815e-07) (-1.609144e-07 -1.622609e-07 9.453924e-07))
0.0009        	((2.419135e+01 1.959273e-04 6.780095e-06) (4.995336e-01 4.955078e-06 9.533663e-06)) ((-5.228922e-05 1.119287e-04 -2.338375e-07) (-1.308538e-07 -1.520737e-07 9.660925e-07))
0.001         	((2.393681e+01 -6.470152e-04 6.658761e-06) (4.951936e-01 5.226863e-06 9.351966e-06)) ((-6.714588e-06 7.076201e-05 -2.362136e-07) (-8.952077e-08 -1.547128e-07 9.508912e-07))
0.0011        	((2.370341e+01 -1.065020e-04 6.660715e-06) (4.910875e-01 6.517546e-06 9.190861e-06)) ((-3.411473e-05 8.682216e-05 -2.329118e-07) (-6.969271e-08 -1.401757e-07 9.858824e-07))
0.0012        	((2.346616e+01 -9.580307e-04 6.206914e-06) (4.876541e-01 7.161947e-06 9.114194e-06)) ((1.073540e-05 4.930983e-05 -2.374982e-07) (-3.973278e-08 -1.445155e-07 9.776041e-07))
0.0013        	((2.324645e+01 -4.633816e-04 6.552180e-06) (4.842623e-01 7.806949e-06 8.947698e-06)) ((-1.341206e-05 7.090357e-05 -2.336688e-07) (-1.705598e-08 -1.341295e-07 1.014588e-06))
0.0014        	((2.302379e+01 -9.113793e-04 6.125715e-06) (4.814072e-01 8.072208e-06 8.928664e-06)) ((8.779741e-06 4.705005e-05 -2.415800e-07) (-1.102247e-08 -1.250119e-07 1.024955e-06))
0.0015        	((2.281512e+01 -6.695879e-04 5.986470e-06) (4.785107e-01 9.056213e-06 8.914031e-06)) ((-6.272843e-06 6.108226e-05 -2.490066e-07) (-1.158555e-08 -1.033058e-07 1.077699e-06))
0.0016        	((2.260398e+01 -1.013601e-03 5.846187e-06) (4.760738e-01 9.893706e-06 8.894906e-06)) ((1.766036e-05 3.726947e-05 -2.553041e-07) (2.280214e-09 -8.964700e-08 1.122260e-06))
0.0017        	((2.240513e+01 -1.171824e-03 5.714574e-06) (4.735365e-01 1.026584e-05 8.885519e-06)) ((2.187674e-05 2.696368e-05 -2.490984e-07) (1.443860e-08 -1.081313e-07 1.156379e-06))
0.0018        	((2.220481e+01 -1.115206e-03 5.868745e-06) (4.713925e-01 1.041383e-05 8.801196e-06)) ((1.915155e-05 3.084974e-05 -2.518610e-07) (1.873309e-08 -9.510810e-08 1.136117e-06))
0.0019        	((2.201407e+01 -1.172220e-03 6.079358e-06) (4.691129e-01 1.139941e-05 8.708574e-06)) ((1.950814e-05 3.314804e-05 -2.521848e-07) (5.973377e-09 -8.642014e-08 1.204341e-06))
0.002         	((2.182573e+01 -1.228641e-03 5.871991e-06) (4.671852e-01 1.215288e-05 8.632820e-06)) ((2.034868e-05 2.817864e-05 -2.599708e-07) (1.728216e-08 -7.178333e-08 1.219423e-06))
0.0021        	((2.165111e+01 -2.901351e-03 5.717434e-06) (4.651138e-01 1.233517e-05 8.649194e-06)) ((1.179599e-04 -6.289825e-05 -2.344406e-07) (1.638144e-08 -7.672536e-08 1.284111e-06))
0.0022        	((2.144993e+01 -2.431255e-03 5.670361e-06) (4.633615e-01 1.248998e-05 8.586075e-06)) ((1.554121e-04 -9.236820e-05 -2.537833e-07) (3.745878e-08 -7.104162e-08 1.277922e-06))
0.0023        	((2.127918e+01 -2.527735e-03 6.330320e-06) (4.614526e-01 1.376954e-05 8.349307e-06)) ((1.142284e-04 -6.615171e-05 -2.450043e-07) (3.683433e-08 -5.434218e-08 1.323776e-06))
0.0024        	((2.111255e+01 -1.510602e-03 5.623210e-06) (4.598428e-01 1.432037e-05 8.335037e-06)) ((1.045449e-05 4.072039e-05 -2.586378e-07) (3.587284e-08 -4.236879e-08 1.331898e-06))
0.0025        	((2.093578e+01 -1.175391e-03 5.382710e-06) (4.580733e-01 1.473485e-05 8.346486e-06)) ((2.672444e-05 3.334551e-05 -2.509518e-07) (3.455537e-08 1.666399e-09 1.371158e-06))
0.0026        	((2.077332e+01 -1.282157e-03 5.661791e-06) (4.565892e-01 1.442005e-05 8.250963e-06)) ((3.827200e-05 2.586426e-05 -2.552867e-07) (3.826692e-08 -4.036233e-08 1.372892e-06))
0.0027        	((2.060298e+01 -1.821188e-03 5.661502e-06) (4.549359e-01 1.545277e-05 8.171901e-06)) ((6.160079e-05 -1.049257e-05 -2.453518e-07) (3.121702e-08 -3.124842e-10 1.421582e-06))
0.0028        	((2.043576e+01 -1.885383e-03 5.581622e-06) (4.535361e-01 1.581086e-05 8.094850e-06)) ((7.197100e-05 -2.284895e-05 -2.589190e-07) (3.007530e-08 1.261430e-08 1.412123e-06))
0.0029        	((2.027975e+01 -1.662856e-03 5.638180e-06) (4.519876e-01 1.592103e-05 7.989820e-06)) ((5.890646e-05 -5.410479e-06 -2.444435e-07) (1.968191e-08 1.626601e-08 1.454407e-06))
0.003         	((2.012069e+01 -1.591616e-03 5.448149e-06) (4.506713e-01 1.615154e-05 7.940617e-06)) ((4.724855e-05 5.271319e-06 -2.532506e-07) (4.027955e-08 1.210840e-08 1.439218e-06))
0.0031        	((1.997445e+01 -1.862928e-03 5.941591e-06) (4.492033e-01 1.671069e-05 7.768353e-06)) ((6.199430e-05 -1.517245e-05 -2.566652e-07) (2.649527e-08 3.057307e-08 1.491430e-06))
0.0032        	((1.981702e+01 -1.539491e-03 5.334968e-06) (4.479470e-01 1.711405e-05 7.749538e-06)) ((4.840526e-05 2.924121e-06 -2.537749e-07) (3.693767e-08 4.528536e-08 1.478181e-06))
0.0033        	((1.967132e+01 -1.696695e-03 5.823384e-06) (4.465454e-01 1.750033e-05 7.580087e-06)) ((5.793326e-05 -8.883176e-06 -2.496173e-07) (2.535468e-08 5.510461e-08 1.507111e-06))
0.0034        	((1.952708e+01 -1.734084e-03 5.116281e-06) (4.453435e-01 1.738849e-05 7.604298e-06)) ((4.746465e-05 1.054010e-06 -2.547118e-07) (4.100205e-08 4.483021e-08 1.492146e-06))
0.0035        	((1.938249e+01 -1.433698e-03 5.712443e-06) (4.440033e-01 1.779212e-05 7.455551e-06)) ((5.572672e-05 -5.085125e-06 -2.525716e-07) (3.094986e-08 5.880627e-08 1.537963e-06))
0.0036        	((1.924617e+01 -1.465933e-03 5.218912e-06) (4.428449e-01 1.835047e-05 7.451609e-06)) ((3.645852e-05 1.367272e-05 -2.538851e-07) (3.294563e-08 8.005634e-08 1.533950e-06))
0.0037        	((1.910410e+01 -1.454621e-03 5.283223e-06) (4.415465e-01 1.863928e-05 7.390868e-06)) ((4.884994e-05 2.965894e-06 -2.546417e-07) (3.624968e-08 9.477400e-08 1.551867e-06))
0.0038        	((1.897343e+01 -1.426351e-03 5.591579e-06) (4.404293e-01 1.842138e-05 7.261889e-06)) ((5.307549e-05 2.039887e-06 -2.476043e-07) (4.273600e-08 8.784655e-08 1.525855e-06))
0.0039        	((1.883560e+01 -1.347441e-03 5.049346e-06) (4.391755e-01 1.890026e-05 7.266956e-06)) ((4.196077e-05 1.639514e-05 -2.504988e-07) (4.754950e-08 1.022419e-07 1.561420e-06))
0.004         	((1.870572e+01 -1.584912e-03 5.295575e-06) (4.380891e-01 1.911601e-05 7.180403e-06)) ((5.370348e-05 -6.577895e-06 -2.605455e-07) (3.369427e-08 1.283895e-07 1.567238e-06))
0.0041        	((1.858055e+01 -1.580630e-03 5.345600e-06) (4.368719e-01 1.934456e-05 7.089668e-06)) ((5.556316e-05 -4.594017e-06 -2.450025e-07) (3.700184e-08 1.348910e-07 1.584987e-06))
0.0042        	((1.845117e+01 -1.517747e-03 5.033455e-06) (4.358149e-01 1.902076e-05 7.052997e-06)) ((5.505483e-05 -6.351784e-06 -2.463469e-07) (4.392985e-08 1.338944e-07 1.550304e-06))
0.0043        	((1.833397e+01 -1.483079e-03 5.637291e-06) (4.346295e-01 1.932992e-05 6.876205e-06)) ((5.044154e-05 -4.513692e-07 -2.536702e-07) (4.145142e-08 1.499572e-07 1.574124e-06))
0.0044        	((1.820616e+01 -1.351518e-03 5.273226e-06) (4.335975e-01 1.968716e-05 6.802372e-06)) ((5.135949e-05 2.721864e-06 -2.559393e-07) (4.123458e-08 1.594076e-07 1.574771e-06))
0.0045        	((1.809203e+01 -1.511149e-03 5.464387e-06) (4.324427e-01 1.998476e-05 6.674564e-06)) ((5.572541e-05 -6.236942e-06 -2.492666e-07) (4.193615e-08 1.713168e-07 1.591019e-06))
0.0046        	((1.797026e+01 -1.458045e-03 4.861690e-06) (4.314304e-01 1.944178e-05 6.710387e-06)) ((4.466110e-05 4.050317e-06 -2.516049e-07) (4.906724e-08 1.579292e-07 1.559473e-06))
0.0047        	((1.785493e+01 -1.506446e-03 5.187424e-06) (4.303077e-01 1.968210e-05 6.620293e-06)) ((5.627300e-05 -5.612432e-06 -2.468394e-07) (4.098421e-08 1.811738e-07 1.584265e-06))
0.0048        	((1.774296e+01 -1.374285e-03 5.184283e-06) (4.293123e-01 2.006031e-05 6.550929e-06)) ((5.335265e-05 -2.305911e-07 -2.553210e-07) (4.592805e-08 1.895466e-07 1.571779e-06))
0.0049        	((1.762869e+01 -1.358857e-03 4.917599e-06) (4.282162e-01 2.010393e-05 6.520976e-06)) ((4.943158e-05 4.125997e-06 -2.520234e-07) (3.940256e-08 1.946500e-07 1.581622e-06))
0.005         	((1.752119e+01 -1.341406e-03 5.428251e-06) (4.272413e-01 1.979450e-05 6.368083e-06)) ((5.278606e-05 -3.882889e-06 -2.462925e-07) (5.450639e-08 1.714186e-07 1.550139e-06))
0.0051        	((1.740857e+01 -1.388216e-03 4.992493e-06) (4.261680e-01 2.005462e-05 6.315751e-06)) ((4.593816e-05 2.952226e-06 -2.550873e-07) (5.445215e-08 2.061696e-07 1.567088e-06))
0.0052        	((1.730818e+01 -1.185988e-03 5.290462e-06) (4.252082e-01 2.027859e-05 6.180139e-06)) ((4.386069e-05 6.883079e-06 -2.602831e-07) (6.283530e-08 2.160744e-07 1.570945e-06))
0.0053        	((1.720026e+01 -1.080479e-03 5.139986e-06) (4.241596e-01 2.044889e-05 6.118177e-06)) ((4.731769e-05 1.053988e-05 -2.568729e-07) (5.090088e-08 2.086182e-07 1.568287e-06))
0.0054        	((1.709813e+01 -1.653661e-03 5.138006e-06) (4.232158e-01 1.990936e-05 6.041831e-06)) ((5.681000e-05 -1.296058e-05 -2.395596e-07) (5.065614e-08 2.090972e-07 1.555825e-06))
0.0055        	((1.699390e+01 -1.241928e-03 4.966131e-06) (4.221884e-01 2.021676e-05 6.001427e-06)) ((5.529523e-05 -1.467979e-06 -2.610226e-07) (5.408482e-08 2.249054e-07 1.558947e-06))
0.0056        	((1.689855e+01 -1.358739e-03 5.349115e-06) (4.212600e-01 2.021319e-05 5.862298e-06)) ((4.881868e-05 -3.558551e-06 -2.528212e-07) (6.354693e-08 2.280075e-07 1.566742e-06))
0.0057        	((1.679849e+01 -1.346981e-03 5.100687e-06) (4.202547e-01 2.026450e-05 5.796052e-06)) ((5.007157e-05 -1.647791e-06 -2.606333e-07) (5.878599e-08 2.331716e-07 1.568458e-06))
0.0058        	((1.670255e+01 -1.402547e-03 5.002820e-06) (4.193421e-01 1.955254e-05 5.756989e-06)) ((4.926817e-05 -1.903039e-06 -2.454191e-07) (5.311921e-08 2.172258e-07 1.555125e-06))
0.0059        	((1.660471e+01 -1.162403e-03 4.984619e-06) (4.183562e-01 1.985502e-05 5.692945e-06)) ((4.513674e-05 3.805645e-06 -2.658899e-07) (5.384636e-08 2.274112e-07 1.552094e-06))
0.006         	((1.651443e+01 -1.280901e-03 4.992014e-06) (4.174556e-01 1.982160e-05 5.644829e-06)) ((4.849961e-05 -1.541839e-06 -2.542541e-07) (7.657424e-08 2.239120e-07 1.556511e-06))
0.0061        	((1.642057e+01 -1.289021e-03 5.041787e-06) (4.164860e-01 2.002675e-05 5.581585e-06)) ((4.873556e-05 -2.039742e-06 -2.628802e-07) (6.771971e-08 2.257856e-07 1.549928e-06))
0.0062        	((1.632929e+01 -1.212384e-03 4.824732e-06) (4.156018e-01 1.947025e-05 5.559712e-06)) ((4.197772e-05 3.287881e-06 -2.489722e-07) (6.292679e-08 2.125886e-07 1.543189e-06))
0.0063        	((1.624020e+01 -1.178604e-03 5.026551e-06) (4.146514e-01 1.970440e-05 5.455552e-06)) ((4.615353e-05 -4.215397e-07 -2.616018e-07) (6.259615e-08 2.266917e-07 1.542540e-06))
0.0064        	((1.615302e+01 -1.374849e-03 4.935477e-06) (4.137791e-01 1.957508e-05 5.392842e-06)) ((5.259996e-05 -9.631049e-06 -2.546610e-07) (7.968747e-08 2.472357e-07 1.552611e-06))
0.0065        	((1.606401e+01 -1.326676e-03 4.903020e-06) (4.128473e-01 1.966314e-05 5.356165e-06)) ((4.598775e-05 -1.346108e-06 -2.636582e-07) (7.413317e-08 2.338035e-07 1.546467e-06))
0.0066        	((1.598069e+01 -1.318384e-03 5.073543e-06) (4.119901e-01 1.909198e-05 5.244029e-06)) ((5.048828e-05 -8.052252e-06 -2.446468e-07) (6.847994e-08 2.363584e-07 1.533382e-06))
0.0067        	((1.589558e+01 -1.391087e-03 4.887747e-06) (4.110759e-01 1.906682e-05 5.211498e-06)) ((5.102924e-05 -7.649389e-06 -2.623461e-07) (6.720734e-08 2.396616e-07 1.535699e-06))
0.0068        	((1.581173e+01 -1.222000e-03 4.824183e-06) (4.102313e-01 1.922799e-05 5.162225e-06)) ((4.585558e-05 -2.549178e-06 -2.549266e-07) (8.660250e-08 2.466705e-07 1.537058e-06))
0.0069        	((1.573176e+01 -1.318812e-03 5.094442e-06) (4.093329e-01 1.918468e-05 5.071762e-06)) ((5.036059e-05 -7.726186e-06 -2.563751e-07) (8.114615e-08 2.360404e-07 1.537621e-06))
0.007         	((1.565056e+01 -1.302925e-03 4.824157e-06) (4.085038e-01 1.864703e-05 5.034816e-06)) ((5.008130e-05 -6.895848e-06 -2.500134e-07) (7.854901e-08 2.368906e-07 1.525267e-06))
0.0071        	((1.557035e+01 -1.218304e-03 4.825027e-06) (4.076235e-01 1.844747e-05 4.987327e-06)) ((4.638062e-05 -2.373329e-06 -2.609232e-07) (7.972204e-08 2.419279e-07 1.533278e-06))
0.0072        	((1.549348e+01 -1.367658e-03 4.986857e-06) (4.068080e-01 1.861406e-05 4.890584e-06)) ((5.099528e-05 -1.280045e-05 -2.516471e-07) (9.989182e-08 2.476736e-07 1.531233e-06))
0.0073        	((1.541419e+01 -1.220209e-03 4.666553e-06) (4.059422e-01 1.832790e-05 4.899261e-06)) ((4.767520e-05 -4.776442e-06 -2.614209e-07) (9.104362e-08 2.463856e-07 1.540462e-06))
0.0074        	((1.534148e+01 -1.095280e-03 4.946840e-06) (4.051427e-01 1.787957e-05 4.805875e-06)) ((4.487543e-05 -1.545910e-06 -2.498638e-07) (9.053238e-08 2.369896e-07 1.521896e-06))
0.0075        	((1.526391e+01 -1.434250e-03 4.816038e-06) (4.042939e-01 1.754270e-05 4.761889e-06)) ((4.957632e-05 -1.125765e-05 -2.531914e-07) (8.886723e-08 2.447730e-07 1.529877e-06))
0.0076        	((1.519029e+01 -1.097569e-03 4.609185e-06) (4.035071e-01 1.764440e-05 4.746745e-06)) ((4.095446e-05 -1.824381e-06 -2.570200e-07) (1.047957e-07 2.539598e-07 1.524223e-06))
0.0077        	((1.511873e+01 -1.163601e-03 4.945144e-06) (4.026735e-01 1.728891e-05 4.672222e-06)) ((4.525004e-05 -2.858430e-06 -2.555533e-07) (9.787696e-08 2.418289e-07 1.529197e-06))
0.0078        	((1.504502e+01 -1.332290e-03 4.682228e-06) (4.019016e-01 1.682972e-05 4.649955e-06)) ((4.787248e-05 -1.096162e-05 -2.421794e-07) (9.904308e-08 2.383614e-07 1.509925e-06))
0.0079        	((1.497450e+01 -1.163980e-03 4.656275e-06) (4.010833e-01 1.637787e-05 4.630356e-06)) ((4.220515e-05 -4.703736e-06 -2.572407e-07) (9.183774e-08 2.443758e-07 1.519980e-06))
0.008         	((1.490554e+01 -1.227816e-03 4.872600e-06) (4.003250e-01 1.657900e-05 4.537493e-06)) ((4.769762e-05 -1.018406e-05 -2.522601e-07) (1.108140e-07 2.492196e-07 1.514201e-06))
0.0081        	((1.483472e+01 -1.204270e-03 4.531476e-06) (3.995203e-01 1.638587e-05 4.551257e-06)) ((4.408868e-05 -5.826821e-06 -2.529443e-07) (1.075504e-07 2.424535e-07 1.522387e-06))
0.0082        	((1.476943e+01 -1.094532e-03 4.831299e-06) (3.987756e-01 1.594971e-05 4.465884e-06)) ((4.353582e-05 -3.577190e-06 -2.467383e-07) (1.092262e-07 2.409104e-07 1.500174e-06))
0.0083        	((1.469958e+01 -1.347439e-03 4.686240e-06) (3.979868e-01 1.548577e-05 4.429689e-06)) ((4.649667e-05 -1.038426e-05 -2.526565e-07) (1.038185e-07 2.379497e-07 1.509515e-06))
0.0084        	((1.463378e+01 -1.150577e-03 4.549591e-06) (3.972541e-01 1.576773e-05 4.407054e-06)) ((4.382027e-05 -8.809406e-06 -2.501397e-07) (1.193148e-07 2.459120e-07 1.503118e-06))
0.0085        	((1.456939e+01 -1.261926e-03 4.844858e-06) (3.964774e-01 1.549165e-05 4.344101e-06)) ((4.614645e-05 -1.005972e-05 -2.570387e-07) (1.171956e-07 2.399180e-07 1.509768e-06))
0.0086        	((1.450328e+01 -1.174498e-03 4.445287e-06) (3.957589e-01 1.520717e-05 4.346974e-06)) ((4.399426e-05 -7.058622e-06 -2.434741e-07) (1.240699e-07 2.375462e-07 1.488221e-06))
0.0087        	((1.444233e+01 -1.067693e-03 4.775765e-06) (3.949976e-01 1.473161e-05 4.265344e-06)) ((4.293202e-05 -2.932281e-06 -2.552575e-07) (1.187710e-07 2.386769e-07 1.500656e-06))
0.0088        	((1.437676e+01 -1.311716e-03 4.598145e-06) (3.942917e-01 1.488527e-05 4.237758e-06)) ((4.506016e-05 -1.176785e-05 -2.519575e-07) (1.322086e-07 2.439493e-07 1.496285e-06))
0.0089        	((1.431591e+01 -1.233201e-03 4.458504e-06) (3.935439e-01 1.461455e-05 4.243101e-06)) ((4.675341e-05 -1.296691e-05 -2.540005e-07) (1.293294e-07 2.393219e-07 1.504653e-06))
0.009         	((1.425508e+01 -1.155175e-03 4.594500e-06) (3.928516e-01 1.433774e-05 4.191600e-06)) ((4.207501e-05 -8.313430e-06 -2.421589e-07) (1.349484e-07 2.370018e-07 1.483933e-06))
0.0091        	((1.419451e+01 -1.271057e-03 4.611171e-06) (3.921178e-01 1.381088e-05 4.158569e-06)) ((4.344574e-05 -1.020068e-05 -2.554501e-07) (1.311148e-07 2.410345e-07 1.496031e-06))
0.0092        	((1.413336e+01 -9.697742e-04 4.464753e-06) (3.914378e-01 1.397964e-05 4.126128e-06)) ((3.904463e-05 -8.886012e-07 -2.518369e-07) (1.432673e-07 2.396424e-07 1.490051e-06))
0.0093        	((1.407567e+01 -1.230823e-03 4.738582e-06) (3.907157e-01 1.375206e-05 4.054512e-06)) ((4.363334e-05 -1.057268e-05 -2.498032e-07) (1.407686e-07 2.360016e-07 1.501533e-06))
0.0094        	((1.401579e+01 -1.127570e-03 4.440026e-06) (3.900477e-01 1.351316e-05 4.044475e-06)) ((4.287456e-05 -5.940214e-06 -2.461956e-07) (1.451380e-07 2.359486e-07 1.480005e-06))
0.0095        	((1.396008e+01 -1.179887e-03 4.645987e-06) (3.893402e-01 1.301730e-05 3.986856e-06)) ((4.447526e-05 -1.251231e-05 -2.522679e-07) (1.398976e-07 2.353086e-07 1.490782e-06))
0.0096        	((1.390144e+01 -1.125231e-03 4.338007e-06) (3.886837e-01 1.322604e-05 3.981622e-06)) ((4.233207e-05 -6.517843e-06 -2.478931e-07) (1.507939e-07 2.366814e-07 1.481610e-06))
0.0097        	((1.384856e+01 -1.013335e-03 4.727263e-06) (3.879870e-01 1.293497e-05 3.905935e-06)) ((4.095364e-05 -3.127186e-06 -2.523344e-07) (1.498838e-07 2.376480e-07 1.489631e-06))
0.0098        	((1.379076e+01 -1.280904e-03 4.446494e-06) (3.873433e-01 1.269218e-05 3.888452e-06)) ((4.263253e-05 -1.338339e-05 -2.419200e-07) (1.566202e-07 2.281943e-07 1.465639e-06))
0.0099        	((1.373632e+01 -1.083644e-03 4.375333e-06) (3.866592e-01 1.223248e-05 3.889661e-06)) ((3.868661e-05 -6.436547e-06 -2.489311e-07) (1.479655e-07 2.218268e-07 1.471516e-06))
0.01          	((1.368391e+01 -1.043397e-03 4.597924e-06) (3.860272e-01 1.234526e-05 3.821953e-06)) ((3.928752e-05 -4.557266e-06 -2.502605e-07) (1.536209e-07 2.255783e-07 1.464259e-06))
0.0101        	((1.362848e+01 -1.253290e-03 4.471980e-06) (3.853542e-01 1.210319e-05 3.804792e-06)) ((4.154525e-05 -1.231170e-05 -2.487079e-07) (1.532479e-07 2.226845e-07 1.471095e-06))
0.0102        	((1.357573e+01 -1.051582e-03 4.355940e-06) (3.847332e-01 1.186959e-05 3.788492e-06)) ((4.058101e-05 -5.965434e-06 -2.377348e-07) (1.626845e-07 2.139391e-07 1.450072e-06))
0.0103        	((1.352559e+01 -1.163330e-03 4.548083e-06) (3.840727e-01 1.145260e-05 3.743962e-06)) ((4.018777e-05 -1.043095e-05 -2.509285e-07) (1.562164e-07 2.119542e-07 1.457216e-06))
0.0104        	((1.347249e+01 -1.194331e-03 4.427127e-06) (3.834638e-01 1.149106e-05 3.716334e-06)) ((4.118860e-05 -1.315225e-05 -2.443345e-07) (1.613207e-07 2.132055e-07 1.449056e-06))
0.0105        	((1.342147e+01 -1.101515e-03 4.272317e-06) (3.828139e-01 1.130199e-05 3.723333e-06)) ((3.873775e-05 -8.237693e-06 -2.451530e-07) (1.566758e-07 2.094234e-07 1.456599e-06))
0.0106        	((1.337304e+01 -1.044397e-03 4.529246e-06) (3.822167e-01 1.090748e-05 3.665273e-06)) ((3.814861e-05 -5.647357e-06 -2.402374e-07) (1.629229e-07 2.046205e-07 1.438752e-06))
0.0107        	((1.332127e+01 -1.224648e-03 4.381800e-06) (3.815803e-01 1.054151e-05 3.656517e-06)) ((4.012054e-05 -1.287517e-05 -2.473005e-07) (1.578186e-07 1.982492e-07 1.446139e-06))
0.0108        	((1.327277e+01 -1.065136e-03 4.307733e-06) (3.809942e-01 1.055830e-05 3.638987e-06)) ((4.110056e-05 -9.968661e-06 -2.411601e-07) (1.646694e-07 2.008385e-07 1.441426e-06))
0.0109        	((1.322470e+01 -1.193384e-03 4.550026e-06) (3.803674e-01 1.034957e-05 3.582035e-06)) ((3.953735e-05 -1.138793e-05 -2.473532e-07) (1.600927e-07 2.005286e-07 1.447161e-06))
0.011         	((1.317578e+01 -1.094014e-03 4.174258e-06) (3.797927e-01 9.936672e-06 3.598583e-06)) ((3.765151e-05 -8.593072e-06 -2.370835e-07) (1.654602e-07 1.959415e-07 1.429849e-06))
0.0111        	((1.313063e+01 -1.069772e-03 4.515380e-06) (3.791790e-01 9.666526e-06 3.546201e-06)) ((3.778970e-05 -7.452693e-06 -2.443830e-07) (1.567258e-07 1.910540e-07 1.434010e-06))
0.0112        	((1.308149e+01 -1.140308e-03 4.326763e-06) (3.786156e-01 9.618013e-06 3.531539e-06)) ((3.816541e-05 -1.017403e-05 -2.400198e-07) (1.662841e-07 1.906554e-07 1.430069e-06))
0.0113        	((1.303573e+01 -1.098781e-03 4.245297e-06) (3.780119e-01 9.414180e-06 3.532561e-06)) ((3.914247e-05 -1.135870e-05 -2.460316e-07) (1.639100e-07 1.851162e-07 1.431975e-06))
0.0114        	((1.299122e+01 -1.130756e-03 4.246786e-06) (3.774602e-01 9.088746e-06 3.518699e-06)) ((3.812239e-05 -1.282633e-05 -2.320177e-07) (1.709147e-07 1.884207e-07 1.414827e-06))
0.0115        	((1.294346e+01 -1.088059e-03 4.257065e-06) (3.768682e-01 8.790871e-06 3.517162e-06)) ((3.734043e-05 -7.021477e-06 -2.448939e-07) (1.641150e-07 1.847708e-07 1.413622e-06))
0.0116        	((1.290171e+01 -1.087014e-03 4.503865e-06) (3.763276e-01 8.776513e-06 3.442592e-06)) ((3.796290e-05 -1.038355e-05 -2.376239e-07) (1.752982e-07 1.850049e-07 1.407104e-06))
0.0117        	((1.285428e+01 -1.076250e-03 4.275870e-06) (3.757450e-01 8.610047e-06 3.425266e-06)) ((3.588423e-05 -5.015318e-06 -2.406193e-07) (1.712982e-07 1.771054e-07 1.409548e-06))
0.0118        	((1.281359e+01 -1.119894e-03 4.507092e-06) (3.752134e-01 8.101835e-06 3.352776e-06)) ((3.814885e-05 -1.243695e-05 -2.335566e-07) (1.748120e-07 1.785712e-07 1.394175e-06))
0.0119        	((1.276804e+01 -9.903129e-04 4.214502e-06) (3.746418e-01 7.764201e-06 3.359463e-06)) ((3.192588e-05 -2.821113e-06 -2.433100e-07) (1.669471e-07 1.751215e-07 1.396004e-06))
0.012         	((1.272724e+01 -1.034718e-03 4.430213e-06) (3.741213e-01 7.819105e-06 3.300593e-06)) ((3.601061e-05 -8.200351e-06 -2.337111e-07) (1.737063e-07 1.808039e-07 1.391041e-06))
0.0121        	((1.268413e+01 -1.101146e-03 4.348311e-06) (3.735588e-01 7.657764e-06 3.276518e-06)) ((3.464553e-05 -8.959959e-06 -2.399142e-07) (1.707454e-07 1.765554e-07 1.393145e-06))
0.0122        	((1.264104e+01 -9.482355e-04 4.192094e-06) (3.730485e-01 7.346272e-06 3.278365e-06)) ((3.330598e-05 -2.282983e-06 -2.304759e-07) (1.784489e-07 1.676360e-07 1.372142e-06))
0.0123        	((1.260109e+01 -1.148453e-03 4.438776e-06) (3.724961e-01 7.053331e-06 3.232146e-06)) ((3.741590e-05 -1.333850e-05 -2.376837e-07) (1.713522e-07 1.638755e-07 1.374471e-06))
0.0124        	((1.255861e+01 -1.048790e-03 4.045166e-06) (3.719943e-01 6.901681e-06 3.265619e-06)) ((3.371016e-05 -9.008546e-06 -2.335021e-07) (1.718253e-07 1.631336e-07 1.370788e-06))
0.0125        	((1.252044e+01 -1.054306e-03 4.415922e-06) (3.714503e-01 6.705178e-06 3.217037e-06)) ((3.491955e-05 -8.410338e-06 -2.375710e-07) (1.689648e-07 1.537679e-07 1.374313e-06))
0.0126        	((1.247764e+01 -1.058808e-03 4.169712e-06) (3.709580e-01 6.389387e-06 3.208600e-06)) ((3.460062e-05 -9.180113e-06 -2.263258e-07) (1.795093e-07 1.539272e-07 1.358654e-06))
0.0127        	((1.244002e+01 -1.098975e-03 4.389828e-06) (3.704246e-01 6.119920e-06 3.178470e-06)) ((3.775535e-05 -1.412929e-05 -2.360327e-07) (1.757637e-07 1.583406e-07 1.359056e-06))
0.0128        	((1.240016e+01 -1.031657e-03 4.058394e-06) (3.699420e-01 6.101326e-06 3.201501e-06)) ((3.016451e-05 -6.082250e-06 -2.289750e-07) (1.788687e-07 1.584326e-07 1.349333e-06))
0.0129        	((1.236178e+01 -1.054446e-03 4.410866e-06) (3.694169e-01 5.890944e-06 3.148479e-06)) ((3.693127e-05 -1.186567e-05 -2.327371e-07) (1.780162e-07 1.479325e-07 1.354740e-06))
0.013         	((1.232328e+01 -1.040212e-03 4.056594e-06) (3.689424e-01 5.514085e-06 3.168836e-06)) ((2.930789e-05 -4.778793e-06 -2.252063e-07) (1.866016e-07 1.411228e-07 1.339560e-06))
0.0131        	((1.228531e+01 -1.075001e-03 4.347055e-06) (3.684272e-01 5.250252e-06 3.138932e-06)) ((3.654797e-05 -1.299119e-05 -2.336390e-07) (1.846761e-07 1.442416e-07 1.340557e-06))
0.0132        	((1.224759e+01 -1.026278e-03 4.065299e-06) (3.679621e-01 5.227520e-06 3.151655e-06)) ((2.963852e-05 -6.160689e-06 -2.254493e-07) (1.904589e-07 1.481782e-07 1.332465e-06))
0.0133        	((1.221083e+01 -1.064292e-03 4.410866e-06) (3.674557e-01 5.046910e-06 3.091209e-06)) ((3.653088e-05 -1.257571e-05 -2.319531e-07) (1.878164e-07 1.438168e-07 1.331870e-06))
0.0134        	((1.217384e+01 -1.027964e-03 4.037105e-06) (3.669987e-01 4.806132e-06 3.112792e-06)) ((2.843239e-05 -4.738414e-06 -2.214088e-07) (1.918322e-07 1.383903e-07 1.311833e-06))
0.0135        	((1.213761e+01 -1.073190e-03 4.374833e-06) (3.665016e-01 4.547870e-06 3.072502e-06)) ((3.656998e-05 -1.360552e-05 -2.304783e-07) (1.899901e-07 1.396101e-07 1.314925e-06))
0.0136        	((1.210126e+01 -1.027002e-03 4.043622e-06) (3.660530e-01 4.428283e-06 3.090922e-06)) ((2.863073e-05 -6.030399e-06 -2.237250e-07) (1.953951e-07 1.392631e-07 1.308270e-06))
0.0137        	((1.206695e+01 -1.036969e-03 4.357944e-06) (3.655638e-01 4.252844e-06 3.027755e-06)) ((3.345312e-05 -9.404006e-06 -2.286351e-07) (1.920233e-07 1.305876e-07 1.312487e-06))
0.0138        	((1.202981e+01 -1.007071e-03 3.991467e-06) (3.651232e-01 4.071563e-06 3.051792e-06)) ((2.989151e-05 -7.096537e-06 -2.191208e-07) (1.993355e-07 1.256767e-07 1.297429e-06))
0.0139        	((1.199722e+01 -1.065477e-03 4.387273e-06) (3.646430e-01 3.870081e-06 2.998545e-06)) ((3.340240e-05 -1.057936e-05 -2.284478e-07) (1.920384e-07 1.297243e-07 1.299324e-06))
0.014         	((1.196039e+01 -9.550505e-04 4.002250e-06) (3.642103e-01 3.797124e-06 3.016689e-06)) ((2.826828e-05 -4.448288e-06 -2.216679e-07) (1.930994e-07 1.331425e-07 1.291576e-06))
0.0141        	((1.192876e+01 -1.065786e-03 4.286796e-06) (3.637378e-01 3.549739e-06 2.964313e-06)) ((3.240440e-05 -1.017824e-05 -2.249761e-07) (1.928683e-07 1.323337e-07 1.296111e-06))
0.0142        	((1.189274e+01 -9.900903e-04 4.152964e-06) (3.633124e-01 3.320144e-06 2.954339e-06)) ((2.992273e-05 -6.717734e-06 -2.187534e-07) (2.013529e-07 1.259834e-07 1.281222e-06))
0.0143        	((1.186085e+01 -1.079385e-03 4.298104e-06) (3.628489e-01 3.115690e-06 2.911598e-06)) ((3.209740e-05 -1.068809e-05 -2.267808e-07) (1.953794e-07 1.236923e-07 1.283037e-06))
0.0144        	((1.182653e+01 -1.008304e-03 3.976100e-06) (3.624324e-01 3.056428e-06 2.933354e-06)) ((2.908565e-05 -8.665680e-06 -2.196127e-07) (1.995611e-07 1.273820e-07 1.276174e-06))
0.0145        	((1.179520e+01 -1.049631e-03 4.305298e-06) (3.619769e-01 2.854189e-06 2.880592e-06)) ((3.095583e-05 -9.014591e-06 -2.235097e-07) (1.970474e-07 1.236093e-07 1.280207e-06))
0.0146        	((1.176100e+01 -9.606206e-04 3.968918e-06) (3.615674e-01 2.712793e-06 2.903694e-06)) ((2.867190e-05 -6.987643e-06 -2.173065e-07) (1.995869e-07 1.162926e-07 1.266006e-06))
0.0147        	((1.173092e+01 -1.076392e-03 4.297518e-06) (3.611202e-01 2.499784e-06 2.865548e-06)) ((3.135674e-05 -1.048019e-05 -2.245720e-07) (1.978869e-07 1.179847e-07 1.268848e-06))
0.0148        	((1.169734e+01 -9.407448e-04 3.988499e-06) (3.607187e-01 2.326473e-06 2.883145e-06)) ((2.744850e-05 -5.978672e-06 -2.198657e-07) (2.040646e-07 1.171248e-07 1.262734e-06))
0.0149        	((1.166744e+01 -1.049618e-03 4.259090e-06) (3.602790e-01 2.075450e-06 2.831039e-06)) ((3.044828e-05 -9.065268e-06 -2.234745e-07) (2.015940e-07 1.124798e-07 1.266720e-06))
0.015         	((1.163437e+01 -1.029190e-03 3.899560e-06) (3.598840e-01 1.937476e-06 2.867874e-06)) ((2.909330e-05 -1.094829e-05 -2.152000e-07) (2.038653e-07 1.075221e-07 1.251823e-06))
0.0151        	((1.160592e+01 -1.046781e-03 4.245528e-06) (3.594515e-01 1.747501e-06 2.833516e-06)) ((3.023004e-05 -1.017019e-05 -2.236140e-07) (2.015345e-07 1.093230e-07 1.253948e-06))
0.0152        	((1.157277e+01 -9.750363e-04 3.994041e-06) (3.590637e-01 1.645655e-06 2.831392e-06)) ((2.863844e-05 -8.460778e-06 -2.161395e-07) (2.050599e-07 1.118209e-07 1.244158e-06))
0.0153        	((1.154535e+01 -1.046828e-03 4.254637e-06) (3.586380e-01 1.434519e-06 2.780196e-06)) ((3.024937e-05 -1.014438e-05 -2.208713e-07) (2.044678e-07 1.103545e-07 1.248858e-06))
0.0154        	((1.151304e+01 -1.009292e-03 4.066173e-06) (3.582564e-01 1.317401e-06 2.783543e-06)) ((2.888712e-05 -9.609169e-06 -2.143498e-07) (2.085609e-07 1.052182e-07 1.233074e-06))
0.0155        	((1.148492e+01 -1.144521e-03 4.086201e-06) (3.578379e-01 1.103123e-06 2.780214e-06)) ((3.334348e-05 -1.732079e-05 -2.199225e-07) (2.091426e-07 1.040919e-07 1.237754e-06))
0.0156        	((1.145441e+01 -1.009225e-03 4.038381e-06) (3.574635e-01 1.061506e-06 2.779497e-06)) ((2.782000e-05 -8.949460e-06 -2.109502e-07) (2.123970e-07 1.076812e-07 1.225398e-06))
0.0157        	((1.142627e+01 -1.052805e-03 4.042179e-06) (3.570519e-01 8.318807e-07 2.777843e-06)) ((3.074507e-05 -1.488531e-05 -2.197086e-07) (2.112830e-07 1.017882e-07 1.235705e-06))
0.0158        	((1.139721e+01 -1.011770e-03 4.206833e-06) (3.566837e-01 9.572887e-07 2.738901e-06)) ((2.878459e-05 -9.240181e-06 -2.082808e-07) (2.180540e-07 9.998916e-08 1.210308e-06))
0.0159        	((1.136977e+01 -1.031592e-03 3.974154e-06) (3.562795e-01 6.871982e-07 2.760687e-06)) ((2.682731e-05 -9.847051e-06 -2.174973e-07) (2.175509e-07 1.000287e-07 1.223515e-06))