# Forces      
# CofR        : (0.000000e+00 0.000000e+00 0.000000e+00)
# Time        forces(pressure viscous)	moments(pressure viscous)
0             	((0.000000e+00 0.000000e+00 0.000000e+00) (3.423318e-01 -9.071168e-04 -3.808724e-06)) ((0.000000e+00 0.000000e+00 0.000000e+00) (-7.542726e-05 2.291356e-05 -2.383318e-06))
1             	((5.635015e+01 1.624925e-01 5.135901e-03) (3.433135e-01 -8.222347e-04 -4.737324e-06)) ((5.184910e-03 -9.953898e-03 7.935171e-04) (-7.049966e-05 2.235987e-05 -2.503113e-06))
2             	((1.084296e+02 2.337246e-01 9.282198e-03) (3.416000e-01 -7.776921e-04 -4.861219e-06)) ((1.435628e-02 -7.088816e-03 1.014910e-03) (-6.739927e-05 2.193053e-05 -2.631623e-06))
3             	((1.336338e+02 2.275227e-01 1.050464e-02) (3.379727e-01 -7.519886e-04 -4.675063e-06)) ((1.830659e-02 -2.421186e-03 8.050689e-04) (-6.518523e-05 2.230888e-05 -2.772794e-06))
4             	((1.328352e+02 1.350057e-01 9.957002e-03) (3.333248e-01 -7.432074e-04 -4.238378e-06)) ((1.557939e-02 -1.428702e-03 5.059331e-04) (-6.388374e-05 2.285136e-05 -2.933371e-06))
5             	((1.196363e+02 1.536662e-02 8.368016e-03) (3.287433e-01 -7.313139e-04 -4.628191e-06)) ((9.556282e-03 -3.945073e-03 2.875578e-04) (-6.264588e-05 2.324687e-05 -3.116610e-06))
6             	((1.059303e+02 -9.823634e-02 6.323133e-03) (3.253592e-01 -7.177770e-04 -5.524694e-06)) ((2.272393e-03 -6.749194e-03 1.794499e-04) (-6.146858e-05 2.373778e-05 -3.260234e-06))
7             	((9.723250e+01 -1.796991e-01 4.478048e-03) (3.235930e-01 -7.019906e-04 -7.052593e-06)) ((-4.449867e-03 -5.889170e-03 1.590910e-04) (-6.053490e-05 2.398068e-05 -3.340822e-06))
8             	((9.392789e+01 -2.018113e-01 2.910917e-03) (3.230823e-01 -6.881095e-04 -9.384296e-06)) ((-8.521871e-03 1.304872e-03 1.737557e-04) (-5.968456e-05 2.490258e-05 -3.364514e-06))
9             	((9.393803e+01 -1.492890e-01 1.685544e-03) (3.231581e-01 -6.721964e-04 -1.115281e-05)) ((-8.341721e-03 1.173976e-02 1.871395e-04) (-5.898266e-05 2.585967e-05 -3.347190e-06))
10            	((9.471760e+01 -4.536466e-02 7.946750e-04) (3.230554e-01 -6.670074e-04 -1.171732e-05)) ((-4.980571e-03 1.929058e-02 1.824847e-04) (-5.853420e-05 2.704466e-05 -3.282305e-06))
11            	((9.447608e+01 6.715150e-02 2.206186e-04) (3.224936e-01 -6.608440e-04 -1.194877e-05)) ((-8.091686e-04 2.040806e-02 1.633264e-04) (-5.797379e-05 2.780787e-05 -3.198657e-06))
12            	((9.273925e+01 1.558241e-01 -7.306330e-05) (3.214738e-01 -6.619059e-04 -1.158205e-05)) ((2.910235e-03 1.491886e-02 1.379213e-04) (-5.732431e-05 2.826498e-05 -3.175707e-06))
13            	((8.988716e+01 2.126512e-01 -1.271914e-04) (3.203909e-01 -6.592719e-04 -1.165781e-05)) ((4.585941e-03 4.563145e-03 1.126788e-04) (-5.644503e-05 2.801472e-05 -3.170747e-06))
14            	((8.653522e+01 2.290825e-01 -3.694926e-05) (3.194709e-01 -6.650582e-04 -1.062496e-05)) ((3.771792e-03 -6.559856e-03 9.170580e-05) (-5.559373e-05 2.768075e-05 -3.155259e-06))
15            	((8.310315e+01 2.036396e-01 9.362520e-05) (3.189120e-01 -6.672699e-04 -9.359425e-06)) ((1.257072e-03 -1.615523e-02 7.609085e-05) (-5.469188e-05 2.706134e-05 -3.209915e-06))
16            	((7.972287e+01 1.296593e-01 2.153849e-04) (3.185970e-01 -6.714769e-04 -6.679285e-06)) ((-2.207579e-03 -2.290648e-02 6.457003e-05) (-5.393940e-05 2.663502e-05 -3.296922e-06))
17            	((7.693453e+01 2.148989e-02 2.670663e-04) (3.184165e-01 -6.713789e-04 -4.150963e-06)) ((-4.660065e-03 -2.345963e-02 5.634403e-05) (-5.336849e-05 2.606834e-05 -3.500683e-06))
18            	((7.512674e+01 -8.510001e-02 2.313341e-04) (3.181668e-01 -6.778617e-04 -1.859946e-06)) ((-4.379473e-03 -1.673972e-02 5.058484e-05) (-5.305895e-05 2.572474e-05 -3.852574e-06))
19            	((7.427117e+01 -1.519056e-01 1.407552e-04) (3.178000e-01 -6.826650e-04 -7.330277e-07)) ((-1.693178e-03 -5.271132e-03 4.649533e-05) (-5.270714e-05 2.528944e-05 -4.291364e-06))
20            	((7.409949e+01 -1.610153e-01 5.214518e-05) (3.172940e-01 -6.861379e-04 -6.746356e-07)) ((1.294491e-03 5.599298e-03 4.308056e-05) (-5.224982e-05 2.508205e-05 -4.684381e-06))
21            	((7.415115e+01 -1.296526e-01 -3.865857e-06) (3.167286e-01 -6.864038e-04 -8.809949e-07)) ((2.941834e-03 1.241411e-02 3.966289e-05) (-5.179062e-05 2.485918e-05 -5.022612e-06))
22            	((7.440594e+01 -6.661142e-02 -2.368793e-05) (3.161549e-01 -6.856918e-04 -7.832434e-07)) ((3.061015e-03 1.640920e-02 3.611409e-05) (-5.144866e-05 2.483220e-05 -5.249641e-06))
23            	((7.488192e+01 1.873601e-02 -1.285649e-05) (3.156291e-01 -6.817998e-04 3.257411e-07)) ((1.100427e-03 1.617606e-02 3.247781e-05) (-5.128450e-05 2.479286e-05 -5.357434e-06))
24            	((7.669997e+01 1.051479e-01 -8.359311e-06) (3.151531e-01 -6.774078e-04 2.448321e-06)) ((-2.675020e-03 5.951115e-03 2.939084e-05) (-5.129248e-05 2.476530e-05 -5.379492e-06))
25            	((7.616889e+01 1.147631e-01 1.956987e-05) (3.147066e-01 -6.720426e-04 4.602182e-06)) ((-4.941564e-03 1.942591e-03 2.637425e-05) (-5.133450e-05 2.466049e-05 -5.362724e-06))
26            	((7.519596e+01 9.612169e-02 3.323888e-05) (3.142526e-01 -6.667342e-04 6.040264e-06)) ((-6.008773e-03 -2.204122e-03 2.392633e-05) (-5.146136e-05 2.455550e-05 -5.348264e-06))
27            	((7.279341e+01 2.445032e-03 3.120727e-05) (3.137694e-01 -6.620942e-04 6.454968e-06)) ((-3.429554e-03 -1.150490e-02 2.229175e-05) (-5.159414e-05 2.435788e-05 -5.359570e-06))
28            	((7.061485e+01 -7.069059e-02 3.300953e-05) (3.132532e-01 -6.587631e-04 5.793202e-06)) ((4.298677e-04 -1.341021e-02 2.081770e-05) (-5.162513e-05 2.414980e-05 -5.382765e-06))
29            	((6.989811e+01 -7.195051e-02 3.684205e-05) (3.127309e-01 -6.553125e-04 4.607212e-06)) ((1.566552e-03 -1.057590e-02 1.927679e-05) (-5.158170e-05 2.396692e-05 -5.382477e-06))
30            	((6.927791e+01 -5.990047e-02 4.475688e-05) (3.122230e-01 -6.514514e-04 3.268137e-06)) ((2.499731e-03 -5.552908e-03 1.778995e-05) (-5.146595e-05 2.384920e-05 -5.347581e-06))
31            	((6.851280e+01 -2.375612e-02 6.077461e-05) (3.117390e-01 -6.457610e-04 2.454967e-06)) ((1.812341e-03 7.143947e-03 1.640691e-05) (-5.131914e-05 2.384889e-05 -5.291713e-06))
32            	((6.819015e+01 -1.086744e-02 6.599440e-05) (3.112817e-01 -6.391461e-04 2.081891e-06)) ((1.257353e-03 9.065978e-03 1.518656e-05) (-5.115780e-05 2.390638e-05 -5.230386e-06))
33            	((6.786292e+01 1.232100e-03 6.549082e-05) (3.108440e-01 -6.327906e-04 1.926246e-06)) ((2.123054e-04 9.462243e-03 1.411047e-05) (-5.099136e-05 2.392810e-05 -5.176645e-06))
34            	((6.751157e+01 2.063247e-02 4.097924e-05) (3.104165e-01 -6.268683e-04 2.047060e-06)) ((-2.078129e-03 4.865530e-03 1.333135e-05) (-5.082692e-05 2.387309e-05 -5.129360e-06))
35            	((6.706550e+01 2.866191e-02 3.289859e-05) (3.099982e-01 -6.213531e-04 2.017247e-06)) ((-2.977002e-03 3.257091e-03 1.256395e-05) (-5.065715e-05 2.375876e-05 -5.088443e-06))
36            	((6.645324e+01 3.162783e-02 2.387062e-05) (3.095884e-01 -6.165487e-04 1.620005e-06)) ((-3.320048e-03 6.201077e-04 1.193949e-05) (-5.049471e-05 2.361223e-05 -5.057237e-06))
37            	((6.565867e+01 2.643158e-02 1.773010e-05) (3.091873e-01 -6.122682e-04 9.144068e-07)) ((-2.764373e-03 -2.654088e-03 1.138863e-05) (-5.033537e-05 2.343608e-05 -5.032515e-06))
38            	((6.444604e+01 -1.193483e-02 1.749855e-05) (3.087924e-01 -6.093373e-04 1.286464e-07)) ((4.973792e-04 -8.187439e-03 1.087893e-05) (-5.009961e-05 2.321735e-05 -5.023293e-06))
39            	((6.402920e+01 -1.518479e-02 2.353177e-05) (3.084099e-01 -6.071144e-04 -6.767032e-07)) ((9.317661e-04 -7.765454e-03 1.030864e-05) (-4.982515e-05 2.299751e-05 -5.021679e-06))
40            	((6.364276e+01 -1.604990e-02 3.090182e-05) (3.080441e-01 -6.048229e-04 -1.434056e-06)) ((1.087110e-03 -6.197704e-03 9.760908e-06) (-4.956687e-05 2.280249e-05 -5.013650e-06))
41            	((6.314509e+01 -1.518451e-02 3.819242e-05) (3.076928e-01 -6.023959e-04 -2.151413e-06)) ((9.778365e-04 -3.373662e-03 9.251401e-06) (-4.931794e-05 2.263943e-05 -4.996157e-06))
42            	((6.206107e+01 -2.543339e-02 5.099896e-05) (3.073471e-01 -6.002003e-04 -2.606986e-06)) ((6.455063e-04 4.819660e-03 8.808941e-06) (-4.906462e-05 2.257813e-05 -4.970412e-06))
43            	((6.160894e+01 -2.099738e-02 5.002185e-05) (3.070094e-01 -5.980206e-04 -2.935783e-06)) ((1.176560e-04 6.290400e-03 8.505839e-06) (-4.881964e-05 2.258507e-05 -4.938071e-06))
44            	((6.113842e+01 -1.622182e-02 4.521637e-05) (3.066838e-01 -5.956252e-04 -3.271695e-06)) ((-5.057866e-04 6.495092e-03 8.277374e-06) (-4.859843e-05 2.258106e-05 -4.899656e-06))
45            	((6.028912e+01 -1.745783e-02 3.427200e-05) (3.063635e-01 -5.933782e-04 -3.454213e-06)) ((-1.224363e-03 3.564344e-03 8.146296e-06) (-4.839426e-05 2.253148e-05 -4.862977e-06))
46            	((5.992326e+01 -1.041469e-02 3.018666e-05) (3.060517e-01 -5.910669e-04 -3.661299e-06)) ((-1.503768e-03 2.277200e-03 7.911192e-06) (-4.821286e-05 2.244809e-05 -4.830741e-06))
47            	((5.954441e+01 -3.208287e-03 2.761254e-05) (3.057523e-01 -5.884423e-04 -4.002897e-06)) ((-1.556215e-03 7.016305e-04 7.666882e-06) (-4.805695e-05 2.234129e-05 -4.801150e-06))
48            	((5.908883e+01 3.570995e-03 2.650486e-05) (3.054636e-01 -5.855325e-04 -4.418767e-06)) ((-1.377375e-03 -1.054587e-03 7.426840e-06) (-4.791226e-05 2.220725e-05 -4.773592e-06))
49            	((5.853995e+01 8.932750e-03 2.686835e-05) (3.051833e-01 -5.823645e-04 -4.817989e-06)) ((-9.635676e-04 -2.715083e-03 7.207027e-06) (-4.775711e-05 2.204324e-05 -4.746865e-06))
50            	((5.793297e+01 1.180404e-02 2.854210e-05) (3.049093e-01 -5.790521e-04 -5.152851e-06)) ((-3.957051e-04 -3.843324e-03 7.019477e-06) (-4.757363e-05 2.185866e-05 -4.719549e-06))
51            	((5.732674e+01 1.165484e-02 3.096335e-05) (3.046399e-01 -5.757321e-04 -5.411489e-06)) ((1.709604e-04 -4.097330e-03 6.865206e-06) (-4.735463e-05 2.167168e-05 -4.691432e-06))
52            	((5.676931e+01 8.981651e-03 3.335853e-05) (3.043747e-01 -5.725486e-04 -5.622155e-06)) ((5.741442e-04 -3.421930e-03 6.736638e-06) (-4.710780e-05 2.150554e-05 -4.662485e-06))
53            	((5.627227e+01 4.552397e-03 3.508898e-05) (3.041142e-01 -5.695791e-04 -5.815988e-06)) ((7.287130e-04 -2.047717e-03 6.623359e-06) (-4.684970e-05 2.137803e-05 -4.633242e-06))
54            	((5.581433e+01 -6.950572e-04 3.571245e-05) (3.038587e-01 -5.668366e-04 -6.031072e-06)) ((6.256244e-04 -3.679484e-04 6.519678e-06) (-4.659980e-05 2.129577e-05 -4.604111e-06))
55            	((5.536812e+01 -6.260816e-03 3.524103e-05) (3.036085e-01 -5.643238e-04 -6.261912e-06)) ((3.215028e-04 1.221425e-03 6.422893e-06) (-4.637047e-05 2.125509e-05 -4.574911e-06))
56            	((5.491925e+01 -1.160788e-02 3.403601e-05) (3.033634e-01 -5.620393e-04 -6.477043e-06)) ((-9.329955e-05 2.346879e-03 6.332467e-06) (-4.616838e-05 2.124330e-05 -4.545080e-06))
57            	((5.446884e+01 -1.618238e-02 3.271736e-05) (3.031230e-01 -5.599692e-04 -6.649871e-06)) ((-5.081369e-04 2.788276e-03 6.247001e-06) (-4.599274e-05 2.124395e-05 -4.514819e-06))
58            	((5.402219e+01 -1.922637e-02 3.174876e-05) (3.028866e-01 -5.580746e-04 -6.760474e-06)) ((-8.344383e-04 2.521744e-03 6.165351e-06) (-4.583679e-05 2.123910e-05 -4.484659e-06))
59            	((5.358088e+01 -2.013262e-02 3.133462e-05) (3.026537e-01 -5.562764e-04 -6.821718e-06)) ((-1.022366e-03 1.704490e-03 6.086975e-06) (-4.569289e-05 2.121544e-05 -4.455167e-06))
60            	((5.314281e+01 -1.859058e-02 3.145607e-05) (3.024237e-01 -5.544626e-04 -6.861451e-06)) ((-1.054998e-03 5.904372e-04 6.012625e-06) (-4.555258e-05 2.116585e-05 -4.426821e-06))
61            	((5.270900e+01 -1.510239e-02 3.211730e-05) (3.021961e-01 -5.525278e-04 -6.892276e-06)) ((-9.371933e-04 -5.183569e-04 5.943593e-06) (-4.540922e-05 2.109110e-05 -4.399871e-06))
62            	((5.228884e+01 -9.644501e-03 3.290860e-05) (3.019707e-01 -5.503631e-04 -6.929639e-06)) ((-7.005775e-04 -1.359994e-03 5.884981e-06) (-4.525835e-05 2.099781e-05 -4.374113e-06))
63            	((5.189156e+01 -3.213889e-03 3.356329e-05) (3.017477e-01 -5.478870e-04 -6.988719e-06)) ((-4.064634e-04 -1.770848e-03 5.838812e-06) (-4.509658e-05 2.089589e-05 -4.349094e-06))
64            	((5.151753e+01 2.882619e-03 3.391449e-05) (3.015274e-01 -5.451068e-04 -7.064218e-06)) ((-1.261364e-04 -1.738728e-03 5.803808e-06) (-4.492387e-05 2.079656e-05 -4.324205e-06))
65            	((5.115558e+01 7.391614e-03 3.395906e-05) (3.013097e-01 -5.420964e-04 -7.142993e-06)) ((8.904366e-05 -1.358579e-03 5.776218e-06) (-4.474220e-05 2.070825e-05 -4.298871e-06))
66            	((5.078899e+01 1.013957e-02 3.350600e-05) (3.010942e-01 -5.389537e-04 -7.212651e-06)) ((2.039848e-04 -7.893823e-04 5.752410e-06) (-4.455548e-05 2.063687e-05 -4.272830e-06))
67            	((5.040620e+01 1.018994e-02 3.270699e-05) (3.008802e-01 -5.358077e-04 -7.267944e-06)) ((2.048807e-04 -1.666477e-04 5.728021e-06) (-4.436862e-05 2.058388e-05 -4.246417e-06))
68            	((5.001371e+01 7.187854e-03 3.186988e-05) (3.006670e-01 -5.328135e-04 -7.307916e-06)) ((1.057904e-04 3.629070e-04 5.699907e-06) (-4.418756e-05 2.054754e-05 -4.220471e-06))
69            	((4.962983e+01 1.466904e-03 3.135880e-05) (3.004543e-01 -5.301336e-04 -7.326643e-06)) ((-6.255206e-05 6.785541e-04 5.668016e-06) (-4.401701e-05 2.052307e-05 -4.195893e-06))
70            	((4.927171e+01 -5.454284e-03 3.132953e-05) (3.002423e-01 -5.278673e-04 -7.321856e-06)) ((-2.495148e-04 7.476190e-04 5.635803e-06) (-4.385963e-05 2.050462e-05 -4.173305e-06))
71            	((4.894304e+01 -1.160639e-02 3.161918e-05) (3.000317e-01 -5.259999e-04 -7.297190e-06)) ((-4.136388e-04 6.206853e-04 5.608265e-06) (-4.371465e-05 2.048583e-05 -4.152845e-06))
72            	((4.863071e+01 -1.561389e-02 3.193490e-05) (2.998225e-01 -5.244258e-04 -7.256269e-06)) ((-5.348440e-04 3.836071e-04 5.588830e-06) (-4.357955e-05 2.046211e-05 -4.133832e-06))
73            	((4.831451e+01 -1.698721e-02 3.210915e-05) (2.996145e-01 -5.229876e-04 -7.200564e-06)) ((-6.038940e-04 1.152851e-04 5.577508e-06) (-4.345090e-05 2.043034e-05 -4.115268e-06))
74            	((4.798271e+01 -1.599570e-02 3.222060e-05) (2.994073e-01 -5.215365e-04 -7.135673e-06)) ((-6.150510e-04 -1.139741e-04 5.571412e-06) (-4.332480e-05 2.039045e-05 -4.096424e-06))
75            	((4.764061e+01 -1.275397e-02 3.222994e-05) (2.992002e-01 -5.199449e-04 -7.059266e-06)) ((-5.628738e-04 -2.668995e-04 5.567869e-06) (-4.319749e-05 2.034486e-05 -4.077131e-06))
76            	((4.730502e+01 -8.307856e-03 3.222218e-05) (2.989932e-01 -5.181351e-04 -6.975053e-06)) ((-4.588900e-04 -3.214472e-04 5.563749e-06) (-4.306645e-05 2.029706e-05 -4.057775e-06))
77            	((4.699046e+01 -3.181517e-03 3.212217e-05) (2.987866e-01 -5.160746e-04 -6.887326e-06)) ((-3.259837e-04 -2.987821e-04 5.557868e-06) (-4.293086e-05 2.025097e-05 -4.039005e-06))
78            	((4.669973e+01 1.196387e-03 3.195714e-05) (2.985809e-01 -5.137914e-04 -6.800529e-06)) ((-2.007936e-04 -2.277332e-04 5.550615e-06) (-4.279175e-05 2.020899e-05 -4.021285e-06))
79            	((4.642307e+01 4.100398e-03 3.171172e-05) (2.983763e-01 -5.113642e-04 -6.711993e-06)) ((-1.099866e-04 -1.450595e-04 5.543237e-06) (-4.265051e-05 2.017184e-05 -4.004630e-06))
80            	((4.614581e+01 5.125457e-03 3.140922e-05) (2.981728e-01 -5.088872e-04 -6.617222e-06)) ((-6.650074e-05 -7.804518e-05 5.536763e-06) (-4.250882e-05 2.013787e-05 -3.988753e-06))
81            	((4.585870e+01 4.347025e-03 3.101170e-05) (2.979699e-01 -5.064573e-04 -6.517352e-06)) ((-7.654595e-05 -5.745553e-05 5.532016e-06) (-4.236878e-05 2.010492e-05 -3.973337e-06))
82            	((4.556319e+01 1.970001e-03 3.072673e-05) (2.977671e-01 -5.041640e-04 -6.402073e-06)) ((-1.239844e-04 -7.698064e-05 5.528071e-06) (-4.223227e-05 2.007101e-05 -3.958355e-06))
83            	((4.526918e+01 -1.279380e-03 3.053585e-05) (2.975643e-01 -5.020772e-04 -6.269653e-06)) ((-1.978578e-04 -1.247274e-04 5.525003e-06) (-4.210075e-05 2.003582e-05 -3.944039e-06))
84            	((4.498737e+01 -4.572503e-03 3.052490e-05) (2.973617e-01 -5.002123e-04 -6.127369e-06)) ((-2.699883e-04 -1.573608e-04 5.522267e-06) (-4.197517e-05 1.999982e-05 -3.930673e-06))
85            	((4.472158e+01 -7.271570e-03 3.066728e-05) (2.971596e-01 -4.985402e-04 -5.982382e-06)) ((-3.328522e-04 -1.453140e-04 5.520064e-06) (-4.185566e-05 1.996468e-05 -3.918301e-06))
86            	((4.446761e+01 -8.998348e-03 3.088071e-05) (2.969583e-01 -4.970064e-04 -5.843779e-06)) ((-3.760364e-04 -8.005549e-05 5.518598e-06) (-4.174143e-05 1.993215e-05 -3.906818e-06))
87            	((4.421646e+01 -9.418113e-03 3.102824e-05) (2.967578e-01 -4.955309e-04 -5.706090e-06)) ((-3.935111e-04 1.347973e-05 5.517945e-06) (-4.163066e-05 1.990319e-05 -3.895844e-06))
88            	((4.396253e+01 -8.748821e-03 3.105920e-05) (2.965579e-01 -4.940370e-04 -5.562132e-06)) ((-3.883389e-04 1.105383e-04 5.518066e-06) (-4.152103e-05 1.987715e-05 -3.884936e-06))
89            	((4.370589e+01 -7.059486e-03 3.090557e-05) (2.963584e-01 -4.924562e-04 -5.415054e-06)) ((-3.688491e-04 1.672412e-04 5.519052e-06) (-4.141098e-05 1.985271e-05 -3.873870e-06))
90            	((4.345104e+01 -4.902525e-03 3.066668e-05) (2.961594e-01 -4.907461e-04 -5.266814e-06)) ((-3.373338e-04 1.696676e-04 5.520131e-06) (-4.130001e-05 1.982787e-05 -3.862608e-06))
91            	((4.320294e+01 -2.815492e-03 3.042509e-05) (2.959608e-01 -4.889048e-04 -5.119492e-06)) ((-2.999265e-04 1.182976e-04 5.520769e-06) (-4.118824e-05 1.980093e-05 -3.851375e-06))
92            	((4.296354e+01 -1.223910e-03 3.023202e-05) (2.957630e-01 -4.869601e-04 -4.974647e-06)) ((-2.635448e-04 3.010547e-05 5.520747e-06) (-4.107600e-05 1.977092e-05 -3.840511e-06))
93            	((4.273129e+01 -3.608832e-04 3.010315e-05) (2.955659e-01 -4.849565e-04 -4.834646e-06)) ((-2.344775e-04 -7.078667e-05 5.520071e-06) (-4.096377e-05 1.973739e-05 -3.830133e-06))
94            	((4.250281e+01 -2.566476e-04 3.003249e-05) (2.953696e-01 -4.829459e-04 -4.695326e-06)) ((-2.167800e-04 -1.595367e-04 5.518940e-06) (-4.085194e-05 1.970064e-05 -3.820218e-06))
95            	((4.227532e+01 -8.071819e-04 3.002201e-05) (2.951741e-01 -4.809749e-04 -4.553064e-06)) ((-2.107296e-04 -2.142984e-04 5.517678e-06) (-4.074093e-05 1.966168e-05 -3.810693e-06))
96            	((4.204805e+01 -1.726576e-03 3.002812e-05) (2.949793e-01 -4.790721e-04 -4.405786e-06)) ((-2.201200e-04 -2.274759e-04 5.516614e-06) (-4.063153e-05 1.962212e-05 -3.801375e-06))
97            	((4.182223e+01 -2.633037e-03 3.003746e-05) (2.947850e-01 -4.772430e-04 -4.251624e-06)) ((-2.353335e-04 -1.983222e-04 5.515790e-06) (-4.052425e-05 1.958361e-05 -3.792166e-06))
98            	((4.159964e+01 -3.401972e-03 3.006024e-05) (2.945914e-01 -4.754769e-04 -4.087200e-06)) ((-2.529400e-04 -1.328402e-04 5.515098e-06) (-4.041943e-05 1.954749e-05 -3.783093e-06))
99            	((4.138166e+01 -3.999768e-03 3.008911e-05) (2.943984e-01 -4.737603e-04 -3.914247e-06)) ((-2.717365e-04 -4.648486e-05 5.514471e-06) (-4.031759e-05 1.951447e-05 -3.774224e-06))
100           	((4.116861e+01 -4.416042e-03 3.010301e-05) (2.942062e-01 -4.720842e-04 -3.737808e-06)) ((-2.899188e-04 4.043071e-05 5.513935e-06) (-4.021897e-05 1.948487e-05 -3.765567e-06))
101           	((4.095983e+01 -4.614788e-03 3.007738e-05) (2.940149e-01 -4.704339e-04 -3.558147e-06)) ((-3.041707e-04 1.077920e-04 5.513551e-06) (-4.012338e-05 1.945777e-05 -3.757121e-06))
102           	((4.075427e+01 -4.556173e-03 2.999273e-05) (2.938245e-01 -4.687944e-04 -3.379227e-06)) ((-3.117828e-04 1.404143e-04 5.513397e-06) (-4.003020e-05 1.943185e-05 -3.748998e-06))
103           	((4.055110e+01 -4.168145e-03 2.983836e-05) (2.936349e-01 -4.671509e-04 -3.201886e-06)) ((-3.087920e-04 1.317252e-04 5.513425e-06) (-3.993867e-05 1.940527e-05 -3.741255e-06))
104           	((4.034955e+01 -3.638871e-03 2.964431e-05) (2.934462e-01 -4.654919e-04 -3.029614e-06)) ((-3.031739e-04 8.701827e-05 5.513477e-06) (-3.984826e-05 1.937671e-05 -3.733900e-06))
105           	((4.014953e+01 -3.144008e-03 2.947903e-05) (2.932583e-01 -4.638157e-04 -2.865402e-06)) ((-2.942807e-04 2.379074e-05 5.513223e-06) (-3.975860e-05 1.934549e-05 -3.726906e-06))
106           	((3.995164e+01 -2.756419e-03 2.938293e-05) (2.930712e-01 -4.621232e-04 -2.705586e-06)) ((-2.824352e-04 -3.964024e-05 5.512499e-06) (-3.966945e-05 1.931167e-05 -3.720231e-06))
107           	((3.975677e+01 -2.494794e-03 2.936944e-05) (2.928849e-01 -4.604179e-04 -2.547945e-06)) ((-2.686910e-04 -8.681088e-05 5.511331e-06) (-3.958061e-05 1.927582e-05 -3.713887e-06))
108           	((3.956557e+01 -2.343033e-03 2.942314e-05) (2.926995e-01 -4.587090e-04 -2.392139e-06)) ((-2.549725e-04 -1.077050e-04 5.509966e-06) (-3.949202e-05 1.923889e-05 -3.707930e-06))
109           	((3.937793e+01 -2.300752e-03 2.951983e-05) (2.925151e-01 -4.570057e-04 -2.239430e-06)) ((-2.424680e-04 -9.887987e-05 5.508616e-06) (-3.940371e-05 1.920235e-05 -3.702348e-06))
110           	((3.919314e+01 -2.308697e-03 2.960202e-05) (2.923315e-01 -4.553131e-04 -2.090837e-06)) ((-2.359951e-04 -6.961237e-05 5.507560e-06) (-3.931587e-05 1.916707e-05 -3.697106e-06))
111           	((3.901021e+01 -2.355737e-03 2.963805e-05) (2.921489e-01 -4.536300e-04 -1.941491e-06)) ((-2.369180e-04 -3.123738e-05 5.506953e-06) (-3.922883e-05 1.913307e-05 -3.692126e-06))
112           	((3.882851e+01 -2.469258e-03 2.962172e-05) (2.919672e-01 -4.519587e-04 -1.793421e-06)) ((-2.451626e-04 5.561484e-06 5.506760e-06) (-3.914289e-05 1.910040e-05 -3.687324e-06))
113           	((3.864823e+01 -2.626250e-03 2.955214e-05) (2.917863e-01 -4.502997e-04 -1.646770e-06)) ((-2.594587e-04 3.064252e-05 5.506785e-06) (-3.905868e-05 1.906849e-05 -3.682597e-06))
114           	((3.847024e+01 -2.778660e-03 2.945255e-05) (2.916064e-01 -4.486585e-04 -1.502361e-06)) ((-2.723605e-04 4.226271e-05 5.506724e-06) (-3.897598e-05 1.903694e-05 -3.678031e-06))
115           	((3.829522e+01 -2.922802e-03 2.934534e-05) (2.914273e-01 -4.470359e-04 -1.362095e-06)) ((-2.815699e-04 4.227134e-05 5.506464e-06) (-3.889473e-05 1.900509e-05 -3.673648e-06))
116           	((3.812340e+01 -3.015724e-03 2.924793e-05) (2.912492e-01 -4.454286e-04 -1.224428e-06)) ((-2.837870e-04 3.501187e-05 5.506063e-06) (-3.881439e-05 1.897267e-05 -3.669430e-06))
117           	((3.795414e+01 -3.076271e-03 2.916458e-05) (2.910721e-01 -4.438338e-04 -1.090800e-06)) ((-2.829701e-04 2.415566e-05 5.505728e-06) (-3.873458e-05 1.893969e-05 -3.665320e-06))
118           	((3.778668e+01 -3.081935e-03 2.910029e-05) (2.908959e-01 -4.422486e-04 -9.644653e-07)) ((-2.796961e-04 1.349280e-05 5.505531e-06) (-3.865516e-05 1.890611e-05 -3.661295e-06))
119           	((3.762058e+01 -2.986489e-03 2.905460e-05) (2.907207e-01 -4.406675e-04 -8.446911e-07)) ((-2.740193e-04 4.572129e-06 5.505413e-06) (-3.857580e-05 1.887173e-05 -3.657395e-06))
120           	((3.745580e+01 -2.844864e-03 2.904072e-05) (2.905464e-01 -4.390854e-04 -7.290150e-07)) ((-2.674514e-04 3.274783e-07 5.505275e-06) (-3.849647e-05 1.883677e-05 -3.653634e-06))
121           	((3.729278e+01 -2.677395e-03 2.905817e-05) (2.903730e-01 -4.374972e-04 -6.150017e-07)) ((-2.607683e-04 1.039635e-06 5.504993e-06) (-3.841699e-05 1.880149e-05 -3.649942e-06))
122           	((3.713204e+01 -2.507484e-03 2.909757e-05) (2.902005e-01 -4.358994e-04 -5.032383e-07)) ((-2.548418e-04 5.580438e-06 5.504528e-06) (-3.833746e-05 1.876655e-05 -3.646321e-06))
123           	((3.697378e+01 -2.358869e-03 2.914129e-05) (2.900290e-01 -4.342950e-04 -3.924164e-07)) ((-2.505807e-04 1.201081e-05 5.503930e-06) (-3.825824e-05 1.873210e-05 -3.642787e-06))
124           	((3.681778e+01 -2.252142e-03 2.917326e-05) (2.898585e-01 -4.326883e-04 -2.804369e-07)) ((-2.486987e-04 1.817539e-05 5.503321e-06) (-3.817973e-05 1.869799e-05 -3.639378e-06))
125           	((3.666359e+01 -2.198399e-03 2.918274e-05) (2.896890e-01 -4.310831e-04 -1.665628e-07)) ((-2.494329e-04 2.243938e-05 5.502814e-06) (-3.810210e-05 1.866391e-05 -3.636057e-06))
126           	((3.651083e+01 -2.196066e-03 2.916603e-05) (2.895204e-01 -4.294820e-04 -5.100429e-08)) ((-2.523019e-04 2.399334e-05 5.502444e-06) (-3.802530e-05 1.862956e-05 -3.632736e-06))
127           	((3.635940e+01 -2.259774e-03 2.913432e-05) (2.893527e-01 -4.278915e-04 5.967977e-08)) ((-2.568324e-04 2.400627e-05 5.502175e-06) (-3.794964e-05 1.859508e-05 -3.629415e-06))
128           	((3.620953e+01 -2.320785e-03 2.908840e-05) (2.891860e-01 -4.263162e-04 1.658802e-07)) ((-2.608977e-04 2.214617e-05 5.501937e-06) (-3.787494e-05 1.856039e-05 -3.626144e-06))
129           	((3.606147e+01 -2.365519e-03 2.903874e-05) (2.890202e-01 -4.247561e-04 2.678610e-07)) ((-2.634714e-04 2.028854e-05 5.501637e-06) (-3.780109e-05 1.852552e-05 -3.622940e-06))
130           	((3.591533e+01 -2.395698e-03 2.899571e-05) (2.888554e-01 -4.232091e-04 3.679892e-07)) ((-2.642085e-04 2.041895e-05 5.501194e-06) (-3.772806e-05 1.849064e-05 -3.619748e-06))
131           	((3.577104e+01 -2.418935e-03 2.896679e-05) (2.886915e-01 -4.216727e-04 4.645461e-07)) ((-2.633420e-04 2.363263e-05 5.500605e-06) (-3.765574e-05 1.845614e-05 -3.616550e-06))
132           	((3.562839e+01 -2.438472e-03 2.895570e-05) (2.885286e-01 -4.201463e-04 5.581004e-07)) ((-2.613618e-04 2.969742e-05 5.499906e-06) (-3.758389e-05 1.842201e-05 -3.613352e-06))
133           	((3.548718e+01 -2.448872e-03 2.896227e-05) (2.883666e-01 -4.186299e-04 6.487474e-07)) ((-2.588037e-04 3.713319e-05 5.499172e-06) (-3.751270e-05 1.838845e-05 -3.610143e-06))
134           	((3.534731e+01 -2.440784e-03 2.898204e-05) (2.882055e-01 -4.171244e-04 7.334644e-07)) ((-2.561621e-04 4.396190e-05 5.498479e-06) (-3.744193e-05 1.835533e-05 -3.606958e-06))
135           	((3.520889e+01 -2.377819e-03 2.900100e-05) (2.880454e-01 -4.156254e-04 8.131188e-07)) ((-2.534586e-04 4.766425e-05 5.497881e-06) (-3.737152e-05 1.832247e-05 -3.603800e-06))
136           	((3.507193e+01 -2.307051e-03 2.902014e-05) (2.878862e-01 -4.141318e-04 8.885436e-07)) ((-2.517817e-04 4.902251e-05 5.497391e-06) (-3.730165e-05 1.828968e-05 -3.600718e-06))
137           	((3.493652e+01 -2.235652e-03 2.903522e-05) (2.877279e-01 -4.126443e-04 9.613328e-07)) ((-2.511624e-04 4.816550e-05 5.496981e-06) (-3.723239e-05 1.825701e-05 -3.597722e-06))
138           	((3.480267e+01 -2.167288e-03 2.904439e-05) (2.875705e-01 -4.111642e-04 1.033481e-06)) ((-2.513121e-04 4.565683e-05 5.496553e-06) (-3.716373e-05 1.822438e-05 -3.594845e-06))
139           	((3.467032e+01 -2.104371e-03 2.904682e-05) (2.874140e-01 -4.096923e-04 1.105716e-06)) ((-2.518200e-04 4.239324e-05 5.496036e-06) (-3.709578e-05 1.819160e-05 -3.592091e-06))
140           	((3.453935e+01 -2.049633e-03 2.904286e-05) (2.872585e-01 -4.082315e-04 1.177221e-06)) ((-2.522955e-04 3.937403e-05 5.495402e-06) (-3.702850e-05 1.815875e-05 -3.589476e-06))
141           	((3.440965e+01 -2.032528e-03 2.903918e-05) (2.871039e-01 -4.067839e-04 1.246663e-06)) ((-2.529036e-04 3.839049e-05 5.494687e-06) (-3.696157e-05 1.812595e-05 -3.586994e-06))
142           	((3.428122e+01 -2.008786e-03 2.902973e-05) (2.869501e-01 -4.053497e-04 1.315267e-06)) ((-2.527062e-04 3.868582e-05 5.493946e-06) (-3.689484e-05 1.809304e-05 -3.584654e-06))
143           	((3.415407e+01 -1.983007e-03 2.901616e-05) (2.867972e-01 -4.039300e-04 1.380694e-06)) ((-2.516812e-04 4.061066e-05 5.493221e-06) (-3.682850e-05 1.806045e-05 -3.582461e-06))
144           	((3.402821e+01 -1.967555e-03 2.900160e-05) (2.866453e-01 -4.025265e-04 1.444222e-06)) ((-2.502572e-04 4.423575e-05 5.492540e-06) (-3.676271e-05 1.802814e-05 -3.580445e-06))
145           	((3.390366e+01 -1.973821e-03 2.899021e-05) (2.864941e-01 -4.011416e-04 1.505159e-06)) ((-2.489836e-04 4.930542e-05 5.491894e-06) (-3.669741e-05 1.799624e-05 -3.578629e-06))
146           	((3.378040e+01 -2.003792e-03 2.898436e-05) (2.863439e-01 -3.997772e-04 1.561075e-06)) ((-2.482351e-04 5.516661e-05 5.491267e-06) (-3.663245e-05 1.796493e-05 -3.576991e-06))
147           	((3.365840e+01 -2.047313e-03 2.898601e-05) (2.861946e-01 -3.984333e-04 1.614343e-06)) ((-2.480652e-04 6.086038e-05 5.490659e-06) (-3.656790e-05 1.793414e-05 -3.575500e-06))
148           	((3.353762e+01 -2.086314e-03 2.899485e-05) (2.860461e-01 -3.971078e-04 1.667684e-06)) ((-2.482817e-04 6.541294e-05 5.490095e-06) (-3.650384e-05 1.790382e-05 -3.574175e-06))
149           	((3.341801e+01 -2.102891e-03 2.900784e-05) (2.858984e-01 -3.957986e-04 1.720202e-06)) ((-2.485809e-04 6.819508e-05 5.489576e-06) (-3.644009e-05 1.787381e-05 -3.573024e-06))
150           	((3.329954e+01 -2.087250e-03 2.902062e-05) (2.857516e-01 -3.945047e-04 1.772049e-06)) ((-2.486762e-04 6.905353e-05 5.489083e-06) (-3.637661e-05 1.784389e-05 -3.572018e-06))
151           	((3.318225e+01 -2.013820e-03 2.902430e-05) (2.856057e-01 -3.932231e-04 1.824106e-06)) ((-2.479989e-04 6.739175e-05 5.488608e-06) (-3.631346e-05 1.781413e-05 -3.571156e-06))
152           	((3.306607e+01 -1.935525e-03 2.902460e-05) (2.854606e-01 -3.919503e-04 1.874539e-06)) ((-2.472764e-04 6.516609e-05 5.488126e-06) (-3.625058e-05 1.778451e-05 -3.570419e-06))
153           	((3.295099e+01 -1.890746e-03 2.902823e-05) (2.853164e-01 -3.906864e-04 1.922435e-06)) ((-2.469045e-04 6.401198e-05 5.487609e-06) (-3.618803e-05 1.775511e-05 -3.569800e-06))
154           	((3.283706e+01 -1.843111e-03 2.903040e-05) (2.851729e-01 -3.894313e-04 1.969411e-06)) ((-2.461288e-04 6.318004e-05 5.487049e-06) (-3.612577e-05 1.772588e-05 -3.569300e-06))
155           	((3.272425e+01 -1.793981e-03 2.903127e-05) (2.850303e-01 -3.881844e-04 2.014197e-06)) ((-2.449379e-04 6.292103e-05 5.486469e-06) (-3.606376e-05 1.769676e-05 -3.568892e-06))
156           	((3.261251e+01 -1.749844e-03 2.903040e-05) (2.848886e-01 -3.869463e-04 2.055183e-06)) ((-2.435247e-04 6.341339e-05 5.485895e-06) (-3.600191e-05 1.766806e-05 -3.568576e-06))
157           	((3.250178e+01 -1.720574e-03 2.902835e-05) (2.847476e-01 -3.857183e-04 2.092679e-06)) ((-2.422395e-04 6.494581e-05 5.485301e-06) (-3.594003e-05 1.763976e-05 -3.568353e-06))