# Forces      
# CofR        : (0.000000e+00 0.000000e+00 0.000000e+00)
# Time        forces(pressure viscous)	moments(pressure viscous)
0             	((5.789290e+01 -2.812058e-03 -3.898427e-05) (4.902048e-01 4.585870e-04 1.088228e-05)) ((-2.472599e-06 -4.523072e-04 2.360202e-05) (-5.979169e-05 -2.062784e-05 1.487886e-07))
0.0001        	((4.648635e+01 1.918818e-01 -2.689889e-05) (4.816709e-01 3.610003e-04 1.761498e-05)) ((2.728518e-03 -2.076660e-03 1.809934e-05) (-4.921545e-05 -1.974212e-05 8.334880e-07))
0.0002        	((5.571042e+01 -2.291081e-01 -9.072063e-06) (4.677182e-01 2.707159e-04 1.531361e-05)) ((-1.719469e-03 -3.514149e-04 1.684658e-05) (-4.129439e-05 -1.938484e-05 1.337453e-06))
0.0003        	((4.309657e+01 2.328767e-01 2.904420e-06) (4.542515e-01 2.513039e-04 9.656082e-06)) ((9.694080e-04 -3.819501e-04 1.883936e-05) (-3.520138e-05 -1.956936e-05 1.694636e-06))
0.0004        	((5.163625e+01 -2.329671e-01 -1.087866e-05) (4.451800e-01 2.197459e-04 1.792749e-05)) ((-5.569700e-04 -9.546609e-05 1.754392e-05) (-3.070011e-05 -2.022850e-05 1.850190e-06))
0.0005        	((4.061041e+01 1.911726e-01 1.031438e-05) (4.383507e-01 2.308281e-04 6.898205e-06)) ((-1.973912e-04 -2.872840e-04 1.818143e-05) (-2.746033e-05 -2.081052e-05 2.000797e-06))
0.0006        	((4.719705e+01 -1.640204e-01 -1.298062e-05) (4.339542e-01 2.203742e-04 1.642862e-05)) ((3.145985e-04 -1.387225e-04 1.656854e-05) (-2.501344e-05 -2.132734e-05 2.143769e-06))
0.0007        	((3.871983e+01 1.156604e-01 1.299835e-05) (4.301315e-01 2.266437e-04 4.505448e-06)) ((-7.503234e-04 -2.563793e-05 1.774736e-05) (-2.334240e-05 -2.165870e-05 2.339297e-06))
0.0008        	((4.312784e+01 -7.511193e-02 -1.269957e-05) (4.272390e-01 2.195865e-04 1.518216e-05)) ((1.096527e-03 -1.276029e-03 1.668842e-05) (-2.186591e-05 -2.199757e-05 2.501821e-06))
0.0009        	((3.722641e+01 3.771541e-02 1.624390e-05) (4.242242e-01 2.159081e-04 4.698596e-06)) ((-1.448711e-03 1.458716e-03 1.799206e-05) (-2.090421e-05 -2.203549e-05 2.700895e-06))
0.001         	((3.960087e+01 -2.066153e-02 -1.037356e-05) (4.213939e-01 2.107251e-04 1.436390e-05)) ((1.752002e-03 -2.713550e-03 1.722621e-05) (-1.978770e-05 -2.234163e-05 2.820427e-06))
0.0011        	((3.572890e+01 2.630540e-03 1.809371e-05) (4.182607e-01 2.039097e-04 6.226429e-06)) ((-1.748759e-03 3.001177e-03 1.833841e-05) (-1.910903e-05 -2.219177e-05 2.951635e-06))
0.0012        	((3.674301e+01 3.380339e-03 -8.579974e-06) (4.150547e-01 2.007059e-04 1.396495e-05)) ((1.941825e-03 -3.755132e-03 1.773482e-05) (-1.818258e-05 -2.251357e-05 3.004965e-06))
0.0013        	((3.422523e+01 -1.592623e-02 1.961213e-05) (4.116198e-01 1.929390e-04 6.643329e-06)) ((-1.989189e-03 3.567300e-03 1.873169e-05) (-1.768202e-05 -2.227128e-05 3.092351e-06))
0.0014        	((3.440134e+01 2.023020e-02 -7.019468e-06) (4.080825e-01 1.918229e-04 1.362769e-05)) ((2.101084e-03 -4.012443e-03 1.812151e-05) (-1.689691e-05 -2.252637e-05 3.112321e-06))
0.0015        	((3.276996e+01 -3.284308e-02 1.999820e-05) (4.044426e-01 1.836623e-04 7.047537e-06)) ((-2.199609e-03 3.614057e-03 1.899099e-05) (-1.652842e-05 -2.221162e-05 3.173577e-06))
0.0016        	((3.242679e+01 3.678781e-02 -4.584546e-06) (4.007346e-01 1.843910e-04 1.325130e-05)) ((2.279635e-03 -3.828332e-03 1.843020e-05) (-1.585878e-05 -2.241336e-05 3.178171e-06))
0.0017        	((3.136972e+01 -4.517500e-02 1.932207e-05) (3.970261e-01 1.762373e-04 7.630080e-06)) ((-2.274925e-03 3.310249e-03 1.913874e-05) (-1.559264e-05 -2.208703e-05 3.216917e-06))
0.0018        	((3.075249e+01 4.221888e-02 -1.536982e-06) (3.932899e-01 1.781920e-04 1.296903e-05)) ((2.348399e-03 -3.424179e-03 1.867705e-05) (-1.499994e-05 -2.221240e-05 3.215881e-06))
0.0019        	((3.009096e+01 -4.684524e-02 1.798966e-05) (3.896197e-01 1.708641e-04 8.358812e-06)) ((-2.258837e-03 2.872235e-03 1.927684e-05) (-1.477911e-05 -2.188301e-05 3.251226e-06))
0.002         	((2.929094e+01 4.610371e-02 6.674972e-07) (3.859490e-01 1.735052e-04 1.303230e-05)) ((2.252692e-03 -2.926612e-03 1.890002e-05) (-1.424499e-05 -2.196215e-05 3.265369e-06))
0.0021        	((2.890046e+01 -5.128295e-02 1.695201e-05) (3.823775e-01 1.660063e-04 8.830632e-06)) ((-2.167540e-03 2.398906e-03 1.946136e-05) (-1.406152e-05 -2.167330e-05 3.310848e-06))
0.0022        	((2.801103e+01 5.067397e-02 2.808429e-06) (3.788207e-01 1.690779e-04 1.279807e-05)) ((2.206947e-03 -2.458576e-03 1.914682e-05) (-1.357474e-05 -2.172366e-05 3.326006e-06))
0.0023        	((2.779595e+01 -5.461805e-02 1.622911e-05) (3.753795e-01 1.612423e-04 8.908714e-06)) ((-2.037897e-03 1.959416e-03 1.960323e-05) (-1.342804e-05 -2.144076e-05 3.373269e-06))
0.0024        	((2.688105e+01 4.507097e-02 5.905021e-06) (3.719658e-01 1.641886e-04 1.193702e-05)) ((1.928497e-03 -2.055204e-03 1.938026e-05) (-1.300229e-05 -2.146474e-05 3.387511e-06))
0.0025        	((2.677826e+01 -4.410209e-02 1.573189e-05) (3.686724e-01 1.568952e-04 9.020623e-06)) ((-1.720583e-03 1.607417e-03 1.972144e-05) (-1.289197e-05 -2.120459e-05 3.436046e-06))
0.0026        	((2.585579e+01 4.071096e-02 8.508948e-06) (3.654118e-01 1.589541e-04 1.172552e-05)) ((1.619102e-03 -1.797994e-03 1.954808e-05) (-1.254628e-05 -2.120838e-05 3.445294e-06))
0.0027        	((2.586198e+01 -4.306206e-02 1.478584e-05) (3.622755e-01 1.513119e-04 8.614002e-06)) ((-1.477714e-03 1.376924e-03 1.983289e-05) (-1.248657e-05 -2.095923e-05 3.487066e-06))
0.0028        	((2.488758e+01 4.243900e-02 1.259199e-05) (3.591689e-01 1.536762e-04 1.124965e-05)) ((1.419946e-03 -1.472250e-03 1.967151e-05) (-1.219766e-05 -2.093382e-05 3.476789e-06))
0.0029        	((2.503680e+01 -4.531891e-02 1.348879e-05) (3.561913e-01 1.462975e-04 8.330447e-06)) ((-1.302217e-03 1.088541e-03 1.998453e-05) (-1.214719e-05 -2.070059e-05 3.499389e-06))
0.003         	((2.400088e+01 4.133788e-02 1.579010e-05) (3.532353e-01 1.488900e-04 1.053899e-05)) ((1.266648e-03 -1.213068e-03 1.976681e-05) (-1.187846e-05 -2.065630e-05 3.466972e-06))
0.0031        	((2.426308e+01 -4.274171e-02 1.254438e-05) (3.504070e-01 1.418093e-04 8.093390e-06)) ((-1.162484e-03 8.837921e-04 2.010995e-05) (-1.183262e-05 -2.040757e-05 3.479899e-06))
0.0032        	((2.319909e+01 3.824399e-02 1.812602e-05) (3.475951e-01 1.442100e-04 9.915749e-06)) ((1.140884e-03 -1.024017e-03 1.989832e-05) (-1.160676e-05 -2.035641e-05 3.446078e-06))
0.0033        	((2.352927e+01 -3.928729e-02 1.248309e-05) (3.449077e-01 1.376933e-04 7.823361e-06)) ((-1.044634e-03 7.252880e-04 2.025342e-05) (-1.157384e-05 -2.013198e-05 3.452043e-06))
0.0034        	((2.247460e+01 3.786568e-02 1.967879e-05) (3.422335e-01 1.399814e-04 9.524151e-06)) ((1.051863e-03 -8.733471e-04 2.004891e-05) (-1.138249e-05 -2.007594e-05 3.415560e-06))
0.0035        	((2.283116e+01 -3.896057e-02 1.269095e-05) (3.396770e-01 1.335718e-04 7.607149e-06)) ((-9.514147e-04 5.865593e-04 2.038389e-05) (-1.135688e-05 -1.987007e-05 3.410170e-06))
0.0036        	((2.181539e+01 3.680333e-02 2.084420e-05) (3.371317e-01 1.355116e-04 9.131188e-06)) ((9.671972e-04 -7.449422e-04 2.021383e-05) (-1.119473e-05 -1.980816e-05 3.370540e-06))
0.0037        	((2.216932e+01 -3.687371e-02 1.313190e-05) (3.346971e-01 1.294787e-04 7.353631e-06)) ((-8.420696e-04 4.702467e-04 2.055603e-05) (-1.119506e-05 -1.962457e-05 3.360010e-06))
0.0038        	((2.121090e+01 3.396797e-02 2.146720e-05) (3.322740e-01 1.311336e-04 8.650208e-06)) ((8.530215e-04 -6.343040e-04 2.036998e-05) (-1.106493e-05 -1.955543e-05 3.322584e-06))
0.0039        	((2.154269e+01 -3.025572e-02 1.315609e-05) (3.299521e-01 1.256100e-04 7.303233e-06)) ((-7.230368e-04 3.819653e-04 2.067227e-05) (-1.105956e-05 -1.938050e-05 3.304623e-06))
0.004         	((2.065244e+01 2.341078e-02 2.222875e-05) (3.276424e-01 1.266037e-04 8.014763e-06)) ((7.305173e-04 -5.646437e-04 2.053855e-05) (-1.094068e-05 -1.931283e-05 3.272120e-06))
0.0041        	((2.095113e+01 -2.029716e-02 1.343460e-05) (3.254265e-01 1.218079e-04 7.057200e-06)) ((-6.042017e-04 3.250406e-04 2.078433e-05) (-1.094231e-05 -1.915167e-05 3.249987e-06))
0.0042        	((2.013400e+01 1.521035e-02 2.229036e-05) (3.232232e-01 1.221672e-04 7.506449e-06)) ((6.139360e-04 -5.020436e-04 2.071098e-05) (-1.084194e-05 -1.907812e-05 3.223773e-06))
0.0043        	((2.038837e+01 -1.572809e-02 1.417089e-05) (3.211048e-01 1.181712e-04 6.668406e-06)) ((-5.212048e-04 3.393868e-04 2.089144e-05) (-1.084632e-05 -1.892827e-05 3.196391e-06))
0.0044        	((1.965478e+01 1.519282e-02 2.123171e-05) (3.190018e-01 1.182392e-04 7.252042e-06)) ((6.144633e-04 -5.609129e-04 2.086949e-05) (-1.075755e-05 -1.885957e-05 3.180566e-06))
0.0045        	((1.984749e+01 -1.714245e-02 1.528008e-05) (3.169746e-01 1.143862e-04 6.320596e-06)) ((-4.823146e-04 3.504347e-04 2.096486e-05) (-1.075768e-05 -1.869103e-05 3.159365e-06))
0.0046        	((1.921120e+01 1.564304e-02 2.060157e-05) (3.149659e-01 1.146607e-04 6.965994e-06)) ((5.472355e-04 -5.425004e-04 2.099106e-05) (-1.067294e-05 -1.862042e-05 3.140855e-06))
0.0047        	((1.934014e+01 -1.657585e-02 1.587695e-05) (3.130237e-01 1.108299e-04 6.126919e-06)) ((-4.021637e-04 3.160352e-04 2.103491e-05) (-1.066368e-05 -1.846680e-05 3.110828e-06))
0.0048        	((1.879029e+01 1.456197e-02 2.030501e-05) (3.111029e-01 1.107551e-04 6.657019e-06)) ((4.310628e-04 -4.668404e-04 2.116043e-05) (-1.058784e-05 -1.840979e-05 3.102696e-06))
0.0049        	((1.886727e+01 -1.445758e-02 1.624185e-05) (3.092411e-01 1.075216e-04 5.888576e-06)) ((-3.076629e-04 2.385095e-04 2.111451e-05) (-1.056766e-05 -1.827376e-05 3.075947e-06))
0.005         	((1.838473e+01 1.207612e-02 2.008827e-05) (3.074027e-01 1.075996e-04 6.250506e-06)) ((3.470016e-04 -3.896712e-04 2.124476e-05) (-1.049877e-05 -1.821501e-05 3.049036e-06))
0.0051        	((1.842232e+01 -1.194226e-02 1.655518e-05) (3.056162e-01 1.045847e-04 5.640623e-06)) ((-2.278999e-04 1.692457e-04 2.120748e-05) (-1.047850e-05 -1.808438e-05 3.029426e-06))
0.0052        	((1.799904e+01 9.256136e-03 1.995133e-05) (3.038557e-01 1.045266e-04 5.842012e-06)) ((2.826213e-04 -3.252459e-04 2.133543e-05) (-1.040906e-05 -1.804573e-05 3.009699e-06))
0.0053        	((1.800215e+01 -9.258129e-03 1.695081e-05) (3.021400e-01 1.016659e-04 5.363388e-06)) ((-1.652086e-04 1.133405e-04 2.129808e-05) (-1.039396e-05 -1.792570e-05 2.990291e-06))
0.0054        	((1.763188e+01 6.889726e-03 1.983241e-05) (3.004521e-01 1.016325e-04 5.470897e-06)) ((2.292550e-04 -2.705775e-04 2.137507e-05) (-1.033261e-05 -1.788045e-05 2.957972e-06))
0.0055        	((1.760508e+01 -7.117261e-03 1.733762e-05) (2.988033e-01 9.901227e-05 5.078931e-06)) ((-1.132126e-04 6.732669e-05 2.137177e-05) (-1.031607e-05 -1.777934e-05 2.934911e-06))
0.0056        	((1.728117e+01 5.022407e-03 1.971477e-05) (2.971833e-01 9.862354e-05 5.101182e-06)) ((1.862490e-04 -2.263067e-04 2.149508e-05) (-1.026386e-05 -1.775848e-05 2.910928e-06))
0.0057        	((1.722972e+01 -5.464657e-03 1.774162e-05) (2.955985e-01 9.586020e-05 4.773157e-06)) ((-7.192596e-05 3.072055e-05 2.144424e-05) (-1.023791e-05 -1.766027e-05 2.894018e-06))
0.0058        	((1.694556e+01 3.577254e-03 1.972781e-05) (2.940422e-01 9.556627e-05 4.691440e-06)) ((1.528046e-04 -1.915193e-04 2.155468e-05) (-1.020054e-05 -1.764339e-05 2.854075e-06))
0.0059        	((1.687443e+01 -4.158789e-03 1.806204e-05) (2.925170e-01 9.290600e-05 4.412247e-06)) ((-4.003899e-05 1.388153e-06 2.151477e-05) (-1.019453e-05 -1.756355e-05 2.834657e-06))
0.006         	((1.662457e+01 1.922777e-03 1.962463e-05) (2.910212e-01 9.228554e-05 4.284535e-06)) ((1.312543e-04 -1.543775e-04 2.164364e-05) (-1.015846e-05 -1.756360e-05 2.802018e-06))
0.0061        	((1.653632e+01 -2.571090e-03 1.859487e-05) (2.895526e-01 8.997714e-05 4.123807e-06)) ((-7.989038e-06 -3.777929e-05 2.159700e-05) (-1.016127e-05 -1.749946e-05 2.779214e-06))
0.0062        	((1.631973e+01 8.872791e-04 1.958371e-05) (2.881126e-01 8.925959e-05 4.025456e-06)) ((9.781131e-05 -1.180852e-04 2.168745e-05) (-1.013666e-05 -1.748039e-05 2.742454e-06))
0.0063        	((1.621440e+01 -1.734430e-03 1.902757e-05) (2.866976e-01 8.651458e-05 3.908904e-06)) ((1.954225e-05 -6.257881e-05 2.160999e-05) (-1.014046e-05 -1.740282e-05 2.729801e-06))
0.0064        	((1.602523e+01 2.760504e-04 1.965746e-05) (2.853108e-01 8.570346e-05 3.768805e-06)) ((8.413974e-05 -1.093035e-04 2.175141e-05) (-1.012226e-05 -1.738058e-05 2.693198e-06))
0.0065        	((1.590964e+01 -1.449261e-03 1.951231e-05) (2.839465e-01 8.294944e-05 3.628383e-06)) ((3.027702e-05 -6.136009e-05 2.165983e-05) (-1.013820e-05 -1.730357e-05 2.680749e-06))
0.0066        	((1.574079e+01 1.066119e-04 1.992012e-05) (2.826104e-01 8.190890e-05 3.467463e-06)) ((7.839345e-05 -1.049060e-04 2.177137e-05) (-1.012683e-05 -1.725707e-05 2.646420e-06))
0.0067        	((1.562094e+01 -1.276752e-03 1.989213e-05) (2.812949e-01 7.954405e-05 3.313255e-06)) ((3.811099e-05 -6.506128e-05 2.166797e-05) (-1.014491e-05 -1.717811e-05 2.622806e-06))
0.0068        	((1.546645e+01 -5.913013e-05 2.019388e-05) (2.800067e-01 7.816516e-05 3.140155e-06)) ((7.367905e-05 -9.854967e-05 2.182615e-05) (-1.011360e-05 -1.714524e-05 2.598664e-06))
0.0069        	((1.534600e+01 -1.116905e-03 2.025755e-05) (2.787378e-01 7.547107e-05 2.987099e-06)) ((4.475630e-05 -6.919942e-05 2.171299e-05) (-1.013347e-05 -1.706747e-05 2.585201e-06))
0.007         	((1.520316e+01 -2.232150e-04 2.060993e-05) (2.774945e-01 7.449651e-05 2.806592e-06)) ((6.964794e-05 -9.444702e-05 2.183792e-05) (-1.012037e-05 -1.703374e-05 2.550149e-06))
0.0071        	((1.508344e+01 -9.647431e-04 2.065393e-05) (2.762692e-01 7.180887e-05 2.649393e-06)) ((5.640452e-05 -7.500099e-05 2.175604e-05) (-1.014549e-05 -1.697092e-05 2.537792e-06))
0.0072        	((1.495057e+01 -5.820123e-04 2.088448e-05) (2.750691e-01 7.056360e-05 2.436943e-06)) ((6.599086e-05 -8.609065e-05 2.188414e-05) (-1.012786e-05 -1.694468e-05 2.510501e-06))
0.0073        	((1.483206e+01 -7.577435e-04 2.092844e-05) (2.738853e-01 6.809323e-05 2.256235e-06)) ((6.087803e-05 -7.872441e-05 2.181154e-05) (-1.016104e-05 -1.688236e-05 2.497614e-06))
0.0074        	((1.470778e+01 -7.266299e-04 2.111001e-05) (2.727252e-01 6.668753e-05 2.058784e-06)) ((6.420931e-05 -8.437356e-05 2.190167e-05) (-1.015369e-05 -1.684548e-05 2.473284e-06))
0.0075        	((1.459030e+01 -6.134309e-04 2.109345e-05) (2.715807e-01 6.405875e-05 1.863629e-06)) ((5.891818e-05 -7.964530e-05 2.184466e-05) (-1.018603e-05 -1.677843e-05 2.466896e-06))
0.0076        	((1.447290e+01 -7.694614e-04 2.130350e-05) (2.704588e-01 6.306538e-05 1.620483e-06)) ((6.552648e-05 -8.212755e-05 2.195005e-05) (-1.017709e-05 -1.674930e-05 2.435739e-06))
0.0077        	((1.436119e+01 -8.251242e-04 2.138922e-05) (2.693516e-01 6.054900e-05 1.405983e-06)) ((6.585549e-05 -7.791834e-05 2.186772e-05) (-1.020221e-05 -1.669315e-05 2.428160e-06))
0.0078        	((1.424808e+01 -7.889957e-04 2.163832e-05) (2.682662e-01 5.929712e-05 1.175858e-06)) ((6.536247e-05 -7.880427e-05 2.196216e-05) (-1.020251e-05 -1.665563e-05 2.401176e-06))
0.0079        	((1.413891e+01 -8.145904e-04 2.179898e-05) (2.671948e-01 5.705228e-05 9.957169e-07)) ((6.579615e-05 -7.898754e-05 2.185585e-05) (-1.023052e-05 -1.658409e-05 2.385429e-06))
0.008         	((1.403067e+01 -7.959610e-04 2.204891e-05) (2.661437e-01 5.562263e-05 7.874776e-07)) ((6.673092e-05 -7.799626e-05 2.198952e-05) (-1.022632e-05 -1.654022e-05 2.362093e-06))
0.0081        	((1.392534e+01 -7.748559e-04 2.216771e-05) (2.651063e-01 5.322245e-05 5.806187e-07)) ((6.640716e-05 -7.947883e-05 2.186088e-05) (-1.025548e-05 -1.647336e-05 2.348258e-06))
0.0082        	((1.382108e+01 -7.978079e-04 2.251705e-05) (2.640887e-01 5.221672e-05 3.326369e-07)) ((6.624238e-05 -7.779368e-05 2.198921e-05) (-1.025954e-05 -1.643708e-05 2.316021e-06))
0.0083        	((1.371876e+01 -5.585210e-04 2.266858e-05) (2.630839e-01 4.983856e-05 1.328179e-07)) ((6.382796e-05 -7.920397e-05 2.185768e-05) (-1.028663e-05 -1.637420e-05 2.305222e-06))
0.0084        	((1.362000e+01 -7.022010e-04 2.292973e-05) (2.620977e-01 4.877929e-05 -8.644100e-08)) ((5.960174e-05 -7.557410e-05 2.198736e-05) (-1.030383e-05 -1.633073e-05 2.280089e-06))
0.0085        	((1.352238e+01 -8.920728e-04 2.320306e-05) (2.611239e-01 4.675848e-05 -3.135007e-07)) ((7.110743e-05 -7.911491e-05 2.186078e-05) (-1.033181e-05 -1.626923e-05 2.265177e-06))
0.0086        	((1.342346e+01 -4.972809e-04 2.346643e-05) (2.601680e-01 4.575228e-05 -5.779646e-07)) ((6.006289e-05 -7.621169e-05 2.197513e-05) (-1.033284e-05 -1.623704e-05 2.243013e-06))
0.0087        	((1.332946e+01 -6.751586e-04 2.367823e-05) (2.592236e-01 4.355533e-05 -8.042793e-07)) ((6.355902e-05 -7.764075e-05 2.185347e-05) (-1.037045e-05 -1.617379e-05 2.234645e-06))
0.0088        	((1.323815e+01 -6.428691e-04 2.401811e-05) (2.582963e-01 4.284600e-05 -1.087875e-06)) ((6.212950e-05 -7.449642e-05 2.195863e-05) (-1.038573e-05 -1.614222e-05 2.207895e-06))
0.0089        	((1.314694e+01 -8.022382e-04 2.431272e-05) (2.573802e-01 4.067038e-05 -1.316600e-06)) ((7.276189e-05 -7.592722e-05 2.184331e-05) (-1.041651e-05 -1.607482e-05 2.202512e-06))
0.009         	((1.305533e+01 -5.830669e-04 2.454378e-05) (2.564802e-01 3.976265e-05 -1.619258e-06)) ((6.226856e-05 -7.678531e-05 2.193598e-05) (-1.042380e-05 -1.603910e-05 2.183626e-06))
0.0091        	((1.296873e+01 -7.122237e-04 2.486400e-05) (2.555908e-01 3.791234e-05 -1.844662e-06)) ((7.136237e-05 -7.431825e-05 2.182025e-05) (-1.046522e-05 -1.596201e-05 2.171023e-06))
0.0092        	((1.288055e+01 -6.290723e-04 2.515299e-05) (2.547172e-01 3.695639e-05 -2.164822e-06)) ((6.341568e-05 -7.759084e-05 2.191768e-05) (-1.046857e-05 -1.593083e-05 2.152845e-06))
0.0093        	((1.279713e+01 -7.509396e-04 2.544120e-05) (2.538533e-01 3.505333e-05 -2.392429e-06)) ((7.286380e-05 -7.461451e-05 2.181332e-05) (-1.051002e-05 -1.585353e-05 2.142502e-06))
0.0094        	((1.271128e+01 -5.806786e-04 2.578363e-05) (2.530049e-01 3.422162e-05 -2.687564e-06)) ((6.437502e-05 -7.605536e-05 2.189335e-05) (-1.050993e-05 -1.581522e-05 2.122180e-06))
0.0095        	((1.262928e+01 -7.095953e-04 2.604123e-05) (2.521656e-01 3.218738e-05 -2.901336e-06)) ((6.702404e-05 -7.504219e-05 2.181418e-05) (-1.055016e-05 -1.573575e-05 2.116179e-06))
0.0096        	((1.254991e+01 -6.135405e-04 2.636712e-05) (2.513411e-01 3.124642e-05 -3.206573e-06)) ((6.505531e-05 -7.432089e-05 2.186752e-05) (-1.055732e-05 -1.570462e-05 2.098081e-06))
0.0097        	((1.247024e+01 -8.166710e-04 2.665231e-05) (2.505256e-01 2.955091e-05 -3.458343e-06)) ((7.397092e-05 -7.459588e-05 2.180385e-05) (-1.059612e-05 -1.562927e-05 2.085233e-06))
0.0098        	((1.238995e+01 -5.652801e-04 2.693897e-05) (2.497244e-01 2.856834e-05 -3.769102e-06)) ((6.627417e-05 -7.483042e-05 2.184361e-05) (-1.059593e-05 -1.559295e-05 2.071083e-06))
0.0099        	((1.231314e+01 -6.578042e-04 2.710214e-05) (2.489312e-01 2.681134e-05 -3.995198e-06)) ((6.821268e-05 -7.385429e-05 2.178505e-05) (-1.063518e-05 -1.551740e-05 2.061568e-06))
0.01          	((1.223868e+01 -5.645939e-04 2.734813e-05) (2.481521e-01 2.603676e-05 -4.306480e-06)) ((6.737237e-05 -7.230845e-05 2.182935e-05) (-1.063497e-05 -1.548957e-05 2.044837e-06))
0.0101        	((1.216405e+01 -7.928781e-04 2.759633e-05) (2.473805e-01 2.422998e-05 -4.544277e-06)) ((7.547651e-05 -7.440674e-05 2.179447e-05) (-1.067035e-05 -1.542251e-05 2.040618e-06))
0.0102        	((1.208905e+01 -5.834968e-04 2.790574e-05) (2.466224e-01 2.361871e-05 -4.847571e-06)) ((6.744106e-05 -7.486176e-05 2.182031e-05) (-1.066464e-05 -1.538706e-05 2.023872e-06))
0.0103        	((1.201797e+01 -7.426401e-04 2.809482e-05) (2.458712e-01 2.202170e-05 -5.087709e-06)) ((7.404136e-05 -7.302253e-05 2.179185e-05) (-1.070185e-05 -1.531767e-05 2.018548e-06))
0.0104        	((1.194564e+01 -6.024787e-04 2.838317e-05) (2.451332e-01 2.144183e-05 -5.403820e-06)) ((6.818318e-05 -7.609259e-05 2.182226e-05) (-1.069467e-05 -1.528898e-05 2.006385e-06))
0.0105        	((1.187696e+01 -7.793769e-04 2.865901e-05) (2.444016e-01 2.000373e-05 -5.666545e-06)) ((7.499919e-05 -7.344473e-05 2.178096e-05) (-1.073316e-05 -1.522990e-05 2.002252e-06))
0.0106        	((1.180612e+01 -6.136300e-04 2.889090e-05) (2.436830e-01 1.956189e-05 -5.995888e-06)) ((6.929443e-05 -7.534857e-05 2.181418e-05) (-1.072681e-05 -1.519710e-05 1.993063e-06))
0.0107        	((1.173852e+01 -6.719333e-04 2.907756e-05) (2.429701e-01 1.822960e-05 -6.266418e-06)) ((7.032241e-05 -7.380474e-05 2.175483e-05) (-1.076551e-05 -1.513407e-05 1.989771e-06))
0.0108        	((1.167158e+01 -6.442004e-04 2.926875e-05) (2.422699e-01 1.790560e-05 -6.601250e-06)) ((6.975776e-05 -7.579337e-05 2.179903e-05) (-1.076511e-05 -1.511066e-05 1.978737e-06))
0.0109        	((1.160713e+01 -7.844113e-04 2.955793e-05) (2.415754e-01 1.669650e-05 -6.885844e-06)) ((7.661676e-05 -7.373072e-05 2.174539e-05) (-1.079812e-05 -1.505563e-05 1.972333e-06))
0.011         	((1.154111e+01 -6.325601e-04 2.970332e-05) (2.408932e-01 1.637003e-05 -7.212824e-06)) ((6.957428e-05 -7.402416e-05 2.178935e-05) (-1.079600e-05 -1.503424e-05 1.960039e-06))
0.0111        	((1.147683e+01 -7.254302e-04 2.993998e-05) (2.402162e-01 1.523084e-05 -7.499897e-06)) ((7.288504e-05 -7.623997e-05 2.171187e-05) (-1.083286e-05 -1.498503e-05 1.951963e-06))
0.0112        	((1.141371e+01 -6.055552e-04 3.012551e-05) (2.395515e-01 1.478910e-05 -7.841829e-06)) ((7.048661e-05 -7.477727e-05 2.176102e-05) (-1.082885e-05 -1.496704e-05 1.944620e-06))
0.0113        	((1.135146e+01 -6.724192e-04 3.037018e-05) (2.388915e-01 1.367110e-05 -8.152608e-06)) ((7.142480e-05 -7.415526e-05 2.167554e-05) (-1.086172e-05 -1.493492e-05 1.939696e-06))
0.0114        	((1.129151e+01 -6.373239e-04 3.048979e-05) (2.382437e-01 1.334159e-05 -8.496933e-06)) ((6.938360e-05 -7.388355e-05 2.172743e-05) (-1.086082e-05 -1.492809e-05 1.931754e-06))
0.0115        	((1.123125e+01 -8.242614e-04 3.070305e-05) (2.376005e-01 1.232582e-05 -8.818394e-06)) ((7.748283e-05 -7.435958e-05 2.164707e-05) (-1.089472e-05 -1.490425e-05 1.927512e-06))
0.0116        	((1.117024e+01 -6.029624e-04 3.086189e-05) (2.369690e-01 1.208888e-05 -9.179994e-06)) ((7.092771e-05 -7.521681e-05 2.170477e-05) (-1.089758e-05 -1.490174e-05 1.920700e-06))
0.0117        	((1.111190e+01 -6.889468e-04 3.107706e-05) (2.363418e-01 1.122431e-05 -9.506690e-06)) ((7.257675e-05 -7.509250e-05 2.161407e-05) (-1.093177e-05 -1.487790e-05 1.918541e-06))
0.0118        	((1.105402e+01 -6.353810e-04 3.125978e-05) (2.357260e-01 1.108054e-05 -9.866922e-06)) ((7.124754e-05 -7.523987e-05 2.167576e-05) (-1.093483e-05 -1.487068e-05 1.914349e-06))
0.0119        	((1.099704e+01 -6.715806e-04 3.145394e-05) (2.351141e-01 1.022351e-05 -1.019185e-05)) ((7.223194e-05 -7.422686e-05 2.158769e-05) (-1.097053e-05 -1.484346e-05 1.914711e-06))
0.012         	((1.094092e+01 -6.696927e-04 3.166251e-05) (2.345135e-01 1.001146e-05 -1.057230e-05)) ((7.184514e-05 -7.649222e-05 2.165929e-05) (-1.096814e-05 -1.484073e-05 1.915234e-06))
0.0121        	((1.088678e+01 -7.894496e-04 3.190511e-05) (2.339166e-01 9.269835e-06 -1.089125e-05)) ((7.874504e-05 -7.409659e-05 2.156064e-05) (-1.099557e-05 -1.481570e-05 1.915541e-06))
0.0122        	((1.083125e+01 -6.550865e-04 3.205242e-05) (2.333307e-01 9.100566e-06 -1.122661e-05)) ((7.207933e-05 -7.445857e-05 2.162426e-05) (-1.099131e-05 -1.480750e-05 1.917928e-06))
0.0123        	((1.077702e+01 -7.093939e-04 3.224366e-05) (2.327481e-01 8.475104e-06 -1.154042e-05)) ((7.397317e-05 -7.589465e-05 2.154001e-05) (-1.102113e-05 -1.478051e-05 1.916462e-06))
0.0124        	((1.072449e+01 -6.509628e-04 3.244041e-05) (2.321764e-01 8.313497e-06 -1.189916e-05)) ((7.195062e-05 -7.419066e-05 2.160825e-05) (-1.101736e-05 -1.477632e-05 1.917589e-06))
0.0125        	((1.067137e+01 -6.784020e-04 3.266161e-05) (2.316078e-01 7.671529e-06 -1.223504e-05)) ((7.320391e-05 -7.511077e-05 2.152025e-05) (-1.104045e-05 -1.474788e-05 1.914229e-06))
0.0126        	((1.061969e+01 -6.757794e-04 3.282206e-05) (2.310496e-01 7.526603e-06 -1.262154e-05)) ((7.302882e-05 -7.664663e-05 2.157701e-05) (-1.103195e-05 -1.474197e-05 1.909686e-06))
0.0127        	((1.056969e+01 -7.830367e-04 3.299764e-05) (2.304945e-01 6.745863e-06 -1.298491e-05)) ((7.881168e-05 -7.483058e-05 2.150173e-05) (-1.105208e-05 -1.471410e-05 1.906889e-06))
0.0128        	((1.051853e+01 -6.659756e-04 3.316373e-05) (2.299495e-01 6.542230e-06 -1.341296e-05)) ((7.291565e-05 -7.553068e-05 2.156559e-05) (-1.104581e-05 -1.471944e-05 1.900453e-06))
0.0129        	((1.046855e+01 -7.131129e-04 3.334779e-05) (2.294074e-01 5.680189e-06 -1.377488e-05)) ((7.527088e-05 -7.683486e-05 2.148190e-05) (-1.105880e-05 -1.469594e-05 1.896066e-06))
0.013         	((1.042000e+01 -6.742151e-04 3.338613e-05) (2.288754e-01 5.484971e-06 -1.415092e-05)) ((7.240928e-05 -7.541031e-05 2.151834e-05) (-1.104579e-05 -1.470497e-05 1.886697e-06))
0.0131        	((1.037105e+01 -7.029681e-04 3.355108e-05) (2.283459e-01 4.740308e-06 -1.448698e-05)) ((7.478522e-05 -7.631429e-05 2.144736e-05) (-1.105551e-05 -1.468815e-05 1.880134e-06))
0.0132        	((1.032333e+01 -6.994628e-04 3.366513e-05) (2.278264e-01 4.494205e-06 -1.489291e-05)) ((7.495963e-05 -7.810747e-05 2.149150e-05) (-1.104326e-05 -1.470700e-05 1.874592e-06))
0.0133        	((1.027616e+01 -6.656806e-04 3.380448e-05) (2.273092e-01 3.816088e-06 -1.525706e-05)) ((7.453390e-05 -7.625367e-05 2.141434e-05) (-1.105762e-05 -1.469151e-05 1.868584e-06))
0.0134        	((1.023041e+01 -6.716870e-04 3.392262e-05) (2.268016e-01 3.581445e-06 -1.566186e-05)) ((7.381175e-05 -7.667777e-05 2.145387e-05) (-1.105155e-05 -1.470306e-05 1.862528e-06))
0.0135        	((1.018452e+01 -8.164308e-04 3.412380e-05) (2.262963e-01 2.818304e-06 -1.603612e-05)) ((8.018639e-05 -7.692760e-05 2.139934e-05) (-1.106711e-05 -1.468323e-05 1.857047e-06))
0.0136        	((1.013854e+01 -6.769400e-04 3.424458e-05) (2.258003e-01 2.497837e-06 -1.644747e-05)) ((7.527943e-05 -7.757032e-05 2.143579e-05) (-1.105930e-05 -1.469538e-05 1.851361e-06))
0.0137        	((1.009347e+01 -7.392944e-04 3.437015e-05) (2.253065e-01 1.728933e-06 -1.677239e-05)) ((7.716142e-05 -7.882338e-05 2.137446e-05) (-1.107151e-05 -1.467504e-05 1.845969e-06))
0.0138        	((1.004966e+01 -6.777443e-04 3.450477e-05) (2.248219e-01 1.516523e-06 -1.710559e-05)) ((7.433407e-05 -7.739379e-05 2.139865e-05) (-1.105870e-05 -1.468121e-05 1.839237e-06))
0.0139        	((1.000555e+01 -7.051537e-04 3.457283e-05) (2.243393e-01 8.035308e-07 -1.737649e-05)) ((7.644699e-05 -7.834471e-05 2.132736e-05) (-1.105929e-05 -1.465973e-05 1.835233e-06))
0.014         	((9.962390e+00 -7.083589e-04 3.466564e-05) (2.238656e-01 6.423526e-07 -1.773114e-05)) ((7.626563e-05 -7.946226e-05 2.135152e-05) (-1.104148e-05 -1.467125e-05 1.829744e-06))
0.0141        	((9.919766e+00 -6.916859e-04 3.471245e-05) (2.233939e-01 -3.555437e-08 -1.805624e-05)) ((7.623553e-05 -7.810314e-05 2.129600e-05) (-1.104100e-05 -1.465142e-05 1.827660e-06))
0.0142        	((9.878319e+00 -7.014457e-04 3.480630e-05) (2.229307e-01 -1.555273e-07 -1.843348e-05)) ((7.498800e-05 -7.884497e-05 2.131571e-05) (-1.102542e-05 -1.466101e-05 1.820145e-06))
0.0143        	((9.836107e+00 -6.983092e-04 3.482588e-05) (2.224695e-01 -8.292100e-07 -1.877039e-05)) ((7.668151e-05 -7.869656e-05 2.126283e-05) (-1.102458e-05 -1.464600e-05 1.816757e-06))
0.0144        	((9.795698e+00 -6.836302e-04 3.493463e-05) (2.220167e-01 -1.014911e-06 -1.916422e-05)) ((7.562998e-05 -7.910667e-05 2.129625e-05) (-1.101271e-05 -1.466220e-05 1.809013e-06))
0.0145        	((9.755274e+00 -8.174241e-04 3.493795e-05) (2.215657e-01 -1.812542e-06 -1.947893e-05)) ((8.083699e-05 -7.888973e-05 2.125872e-05) (-1.101395e-05 -1.464524e-05 1.807833e-06))
0.0146        	((9.714670e+00 -7.010542e-04 3.497138e-05) (2.211228e-01 -2.026761e-06 -1.980850e-05)) ((7.643025e-05 -7.960747e-05 2.127164e-05) (-1.100041e-05 -1.465551e-05 1.801150e-06))
0.0147        	((9.674853e+00 -7.467273e-04 3.494714e-05) (2.206817e-01 -2.691786e-06 -2.010665e-05)) ((7.868878e-05 -8.060809e-05 2.121667e-05) (-1.099497e-05 -1.463635e-05 1.798626e-06))
0.0148        	((9.636100e+00 -7.001596e-04 3.490862e-05) (2.202486e-01 -2.826747e-06 -2.044988e-05)) ((7.522880e-05 -7.943680e-05 2.124609e-05) (-1.097091e-05 -1.465426e-05 1.792715e-06))
0.0149        	((9.597066e+00 -7.262778e-04 3.478865e-05) (2.198173e-01 -3.459886e-06 -2.070860e-05)) ((7.792961e-05 -7.968699e-05 2.119461e-05) (-1.095695e-05 -1.463723e-05 1.790972e-06))
0.015         	((9.558836e+00 -7.340042e-04 3.482386e-05) (2.193937e-01 -3.570944e-06 -2.103435e-05)) ((7.731686e-05 -8.108499e-05 2.122395e-05) (-1.093209e-05 -1.465209e-05 1.785848e-06))
0.0151        	((9.521542e+00 -7.143733e-04 3.469593e-05) (2.189719e-01 -4.181801e-06 -2.132112e-05)) ((7.689531e-05 -7.863049e-05 2.116679e-05) (-1.091986e-05 -1.463567e-05 1.785605e-06))
0.0152        	((9.484386e+00 -7.394883e-04 3.463172e-05) (2.185574e-01 -4.265151e-06 -2.164086e-05)) ((7.731358e-05 -8.016670e-05 2.120387e-05) (-1.089659e-05 -1.465748e-05 1.780791e-06))
0.0153        	((9.447654e+00 -8.488360e-04 3.446284e-05) (2.181446e-01 -4.970761e-06 -2.189886e-05)) ((8.179484e-05 -7.971413e-05 2.115654e-05) (-1.088730e-05 -1.464141e-05 1.782440e-06))
0.0154        	((9.410709e+00 -7.175981e-04 3.438436e-05) (2.177387e-01 -5.066867e-06 -2.221106e-05)) ((7.790602e-05 -8.030944e-05 2.118461e-05) (-1.086467e-05 -1.466088e-05 1.778633e-06))
0.0155        	((9.374489e+00 -7.717041e-04 3.422443e-05) (2.173345e-01 -5.710477e-06 -2.246223e-05)) ((7.990166e-05 -8.085147e-05 2.113652e-05) (-1.084953e-05 -1.464774e-05 1.781247e-06))
0.0156        	((9.339189e+00 -7.107724e-04 3.423287e-05) (2.169371e-01 -5.769652e-06 -2.274811e-05)) ((7.717772e-05 -8.040530e-05 2.115895e-05) (-1.082174e-05 -1.467435e-05 1.778084e-06))
0.0157        	((9.303694e+00 -7.694762e-04 3.404095e-05) (2.165415e-01 -6.298531e-06 -2.299114e-05)) ((7.960109e-05 -8.097751e-05 2.111652e-05) (-1.080768e-05 -1.466503e-05 1.781102e-06))
0.0158        	((9.268814e+00 -7.405575e-04 3.402267e-05) (2.161523e-01 -6.217142e-06 -2.331670e-05)) ((7.885442e-05 -8.181550e-05 2.113402e-05) (-1.077812e-05 -1.468659e-05 1.777551e-06))